ITEM: TIMESTEP
1
ITEM: NUMBER OF ATOMS
1344
ITEM: BOX BOUNDS xy xz yz pp pp pp
0.0000000000000000e+00 2.6364000000000001e+01 0.0000000000000000e+00
0.0000000000000000e+00 2.3148000000000000e+01 0.0000000000000000e+00
-0.0000000000000000e+00 2.1417999999999999e+01 0.0000000000000000e+00
ITEM: ATOMS id type xs ys zs 
827 3 0.00773193 0.0737086 0.0145004 
832 4 0.022831 0.0363136 0.0492225 
2 1 0.025615 0.121996 0.169897 
19 5 0.0511866 0.0862899 0.159691 
3 1 0.0742358 0.190455 0.107704 
6 2 0.026897 0.161234 0.116484 
21 5 0.071797 0.221655 0.0717032 
1 1 0.0920761 0.178875 0.220417 
4 2 0.0877893 0.218067 0.166366 
5 2 0.04397 0.149885 0.226619 
836 5 0.10066 0.0465291 0.0104989 
472 4 0.136691 0.0467547 0.119736 
469 3 0.137046 0.0189258 0.167377 
473 4 0.117534 0.0342942 0.216889 
20 5 0.102479 0.157117 0.0954151 
119 4 0.193757 0.17695 0.124763 
16 5 0.120096 0.145466 0.212071 
150 1 0.0745629 0.0590878 0.357737 
153 2 0.026681 0.0885156 0.366207 
168 5 0.0718239 0.0288241 0.319704 
148 1 0.0919988 0.0710781 0.469713 
151 2 0.0878749 0.0319153 0.41617 
152 2 0.0439449 0.100311 0.477056 
8 3 0.00778435 0.176071 0.264887 
13 4 0.0229171 0.213326 0.299539 
149 1 0.0252575 0.12814 0.419422 
166 5 0.0504672 0.16355 0.409476 
56 4 0.194035 0.0733988 0.374926 
167 5 0.10237 0.0916814 0.346028 
163 5 0.120673 0.102737 0.461342 
17 5 0.0999728 0.20296 0.261006 
31 4 0.136518 0.203623 0.369357 
28 3 0.136772 0.230938 0.417171 
32 4 0.11714 0.21548 0.466952 
155 3 0.0078116 0.0738864 0.514516 
160 4 0.0226281 0.0365651 0.549355 
674 1 0.0251008 0.122057 0.669706 
691 5 0.0511595 0.0866458 0.657758 
675 1 0.0742196 0.190721 0.607843 
678 2 0.0269654 0.160866 0.616276 
693 5 0.0723007 0.221296 0.569876 
673 1 0.0921585 0.178922 0.720422 
676 2 0.0880537 0.218039 0.666524 
677 2 0.0438051 0.149752 0.727 
164 5 0.100094 0.0471051 0.512243 
1144 4 0.136477 0.0463466 0.619445 
1141 3 0.136876 0.0192719 0.667126 
1145 4 0.117758 0.0342845 0.716889 
692 5 0.103329 0.158807 0.596267 
791 4 0.193712 0.176827 0.624482 
688 5 0.119621 0.146697 0.70993 
822 1 0.0740367 0.0593013 0.857517 
825 2 0.026742 0.0888757 0.866471 
840 5 0.0710762 0.0283789 0.820199 
820 1 0.0921705 0.0711573 0.970083 
823 2 0.0881147 0.0321734 0.916414 
824 2 0.0439105 0.100379 0.976708 
680 3 0.00797832 0.176084 0.764564 
685 4 0.0226283 0.213436 0.799694 
821 1 0.0250275 0.127812 0.919677 
838 5 0.0507579 0.163551 0.910578 
728 4 0.193943 0.0735884 0.874905 
839 5 0.102594 0.091514 0.847258 
835 5 0.120218 0.103451 0.961684 
689 5 0.101764 0.203104 0.762518 
703 4 0.136462 0.203323 0.869242 
700 3 0.136903 0.230684 0.917057 
704 4 0.117698 0.215539 0.967117 
249 5 0.0127135 0.356258 0.0737409 
264 4 0.0346446 0.343065 0.236732 
245 4 0.0559704 0.426786 0.12476 
240 3 0.0165153 0.443688 0.145755 
246 4 0.0116971 0.484721 0.180577 
10 4 0.113386 0.296633 0.119403 
710 5 0.14927 0.296654 0.0116678 
7 3 0.113145 0.269138 0.167854 
11 4 0.132539 0.283871 0.216767 
142 5 0.129243 0.397064 0.210763 
129 1 0.175659 0.440388 0.107825 
146 5 0.148435 0.408125 0.0962035 
147 5 0.178297 0.472545 0.0704757 
127 1 0.157993 0.428876 0.220056 
130 2 0.161899 0.467906 0.166772 
266 4 0.0561418 0.323333 0.374896 
261 3 0.0166068 0.306123 0.396244 
267 4 0.0119466 0.265705 0.430608 
270 5 0.0138853 0.395381 0.321406 
915 4 0.0344884 0.407279 0.486976 
24 1 0.175696 0.30936 0.358031 
41 5 0.147089 0.34137 0.346451 
42 5 0.178889 0.279049 0.320552 
22 1 0.157937 0.320785 0.470154 
25 2 0.162226 0.28219 0.416415 
37 5 0.128803 0.353233 0.460819 
143 5 0.148684 0.45379 0.261713 
493 4 0.113408 0.45308 0.369508 
40 5 0.198714 0.412086 0.409041 
490 3 0.11297 0.480848 0.417367 
494 4 0.132757 0.465518 0.466867 
921 5 0.0122057 0.354879 0.573788 
936 4 0.0348096 0.342683 0.737196 
917 4 0.0562495 0.426978 0.624796 
912 3 0.0165919 0.443307 0.645918 
918 4 0.0117092 0.484498 0.680854 
38 5 0.150062 0.297355 0.512234 
682 4 0.113366 0.296917 0.619337 
679 3 0.11318 0.268972 0.667449 
683 4 0.132764 0.284471 0.716861 
817 5 0.199873 0.336127 0.659108 
801 1 0.175659 0.440978 0.608045 
818 5 0.147052 0.408743 0.595407 
819 5 0.178523 0.47324 0.569847 
799 1 0.157964 0.429049 0.719824 
802 2 0.161826 0.467683 0.666572 
814 5 0.129457 0.397469 0.71091 
938 4 0.0560587 0.32333 0.874901 
933 3 0.0166269 0.306678 0.896024 
939 4 0.0120007 0.265358 0.930684 
942 5 0.0124413 0.39581 0.822342 
243 4 0.0345623 0.406788 0.986909 
696 1 0.175753 0.309566 0.857632 
713 5 0.147969 0.34146 0.845674 
714 5 0.177989 0.27959 0.820582 
694 1 0.158453 0.32104 0.969719 
697 2 0.161843 0.2821 0.916713 
709 5 0.12937 0.352747 0.960213 
815 5 0.149273 0.453278 0.762546 
1165 4 0.1133 0.453293 0.869474 
712 5 0.199384 0.412443 0.909648 
1162 3 0.113191 0.4813 0.917187 
1166 4 0.132568 0.465387 0.966967 
1163 3 0.00748598 0.573841 0.0150629 
1168 4 0.0229943 0.53632 0.0495742 
338 1 0.0252998 0.622067 0.169533 
355 5 0.0507344 0.587742 0.158984 
339 1 0.0741786 0.690884 0.107835 
342 2 0.0266796 0.66144 0.116559 
357 5 0.0730659 0.721114 0.0710981 
337 1 0.0921042 0.679105 0.219859 
340 2 0.0880745 0.717811 0.166751 
341 2 0.0438143 0.649754 0.227038 
136 4 0.136531 0.546706 0.119423 
1172 5 0.100734 0.54775 0.0127852 
133 3 0.137123 0.51883 0.167349 
137 4 0.117621 0.534357 0.217067 
356 5 0.102421 0.657615 0.0940677 
455 4 0.194058 0.676765 0.124775 
352 5 0.121799 0.646804 0.211247 
486 1 0.0743486 0.559264 0.358052 
489 2 0.0268074 0.588981 0.366594 
504 5 0.0724212 0.528666 0.321107 
484 1 0.0919557 0.571378 0.470137 
487 2 0.0882797 0.531925 0.416519 
488 2 0.0440071 0.600511 0.476966 
344 3 0.00775136 0.67636 0.264816 
349 4 0.0224437 0.713456 0.299714 
485 1 0.0248736 0.627862 0.419949 
502 5 0.050398 0.663287 0.409652 
392 4 0.193949 0.573289 0.374808 
503 5 0.102469 0.590988 0.34456 
499 5 0.120737 0.602351 0.461628 
353 5 0.100488 0.703626 0.261459 
367 4 0.136509 0.703265 0.369319 
364 3 0.136716 0.730951 0.417443 
368 4 0.117347 0.715808 0.467183 
491 3 0.00749923 0.573759 0.514695 
496 4 0.0228849 0.536591 0.549522 
1010 1 0.025087 0.622262 0.670018 
1027 5 0.0507888 0.586644 0.660266 
1011 1 0.074541 0.690861 0.608316 
1014 2 0.0268717 0.661168 0.616535 
1029 5 0.0727972 0.721572 0.56999 
1009 1 0.0921132 0.678908 0.719795 
1012 2 0.0877833 0.71785 0.666745 
1013 2 0.0441691 0.649964 0.726782 
808 4 0.136675 0.546492 0.619231 
500 5 0.0995579 0.545534 0.511541 
805 3 0.136987 0.519032 0.667321 
809 4 0.117277 0.534298 0.716962 
1028 5 0.102735 0.65819 0.597363 
1127 4 0.193892 0.676496 0.624721 
1024 5 0.119787 0.646901 0.710619 
1158 1 0.0744016 0.559139 0.857928 
1161 2 0.0264071 0.588849 0.8663 
1176 5 0.0718374 0.528257 0.822432 
1156 1 0.0916411 0.570891 0.969786 
1159 2 0.0879532 0.532179 0.916507 
1160 2 0.0438582 0.600136 0.976836 
1016 3 0.00780825 0.676312 0.764594 
1021 4 0.0228562 0.713753 0.799434 
1157 1 0.0254565 0.628237 0.919783 
1174 5 0.0505118 0.662933 0.910646 
1064 4 0.19428 0.573584 0.874916 
1175 5 0.102904 0.591674 0.845958 
1171 5 0.119768 0.602365 0.96121 
1025 5 0.101606 0.704113 0.76209 
1039 4 0.136357 0.70356 0.869441 
1036 3 0.13714 0.730859 0.917207 
1040 4 0.117618 0.715625 0.96682 
585 5 0.0128634 0.856201 0.073368 
600 4 0.034655 0.843153 0.236783 
581 4 0.0559001 0.926325 0.124762 
576 3 0.0166527 0.944148 0.146397 
582 4 0.0116432 0.98464 0.180396 
346 4 0.113661 0.79644 0.119594 
1046 5 0.149678 0.796478 0.0126233 
343 3 0.113077 0.769055 0.167212 
347 4 0.132187 0.784371 0.216619 
478 5 0.129576 0.897 0.211523 
465 1 0.175796 0.940475 0.107997 
482 5 0.147014 0.907591 0.0944477 
483 5 0.177812 0.970479 0.0701952 
463 1 0.158195 0.928969 0.220017 
466 2 0.1621 0.967975 0.166684 
602 4 0.0560376 0.823904 0.374723 
597 3 0.0166716 0.806319 0.396337 
603 4 0.0119608 0.765303 0.430539 
606 5 0.0132008 0.894972 0.323187 
1251 4 0.0344899 0.907061 0.486855 
360 1 0.175684 0.809406 0.357643 
377 5 0.14617 0.840703 0.345862 
378 5 0.179502 0.779236 0.319832 
358 1 0.157932 0.821322 0.470245 
361 2 0.162346 0.782155 0.417076 
373 5 0.130906 0.853081 0.461432 
157 4 0.113363 0.953097 0.369361 
479 5 0.148836 0.952992 0.262765 
154 3 0.113107 0.981099 0.417371 
158 4 0.132529 0.96593 0.466951 
376 5 0.199378 0.913781 0.410032 
1257 5 0.0123973 0.855819 0.573517 
1272 4 0.0345927 0.842719 0.736855 
1253 4 0.0560306 0.92645 0.624639 
1248 3 0.0166788 0.944173 0.64638 
1254 4 0.0118784 0.984641 0.680755 
374 5 0.148805 0.796063 0.511897 
1018 4 0.113646 0.796463 0.619465 
1015 3 0.11305 0.769062 0.667227 
1019 4 0.13234 0.784556 0.717244 
1153 5 0.199598 0.836637 0.659839 
1137 1 0.175513 0.940551 0.608158 
1154 5 0.148154 0.908275 0.595331 
1155 5 0.177771 0.972294 0.569959 
1135 1 0.15809 0.928795 0.719953 
1138 2 0.161836 0.967917 0.666479 
1150 5 0.129448 0.89623 0.711104 
1274 4 0.055725 0.823289 0.87501 
1269 3 0.0164459 0.806028 0.896535 
1275 4 0.0115485 0.765147 0.93028 
1278 5 0.0132773 0.894047 0.822753 
579 4 0.0347497 0.907436 0.987131 
1032 1 0.175774 0.809171 0.858356 
1049 5 0.147849 0.84301 0.845763 
1050 5 0.177721 0.778152 0.820961 
1030 1 0.157835 0.821218 0.969819 
1033 2 0.162264 0.781724 0.916292 
1045 5 0.128975 0.853123 0.961107 
829 4 0.113324 0.953392 0.869413 
1151 5 0.149415 0.953825 0.761369 
826 3 0.112855 0.980728 0.917154 
830 4 0.132441 0.965806 0.967335 
1048 5 0.199091 0.91326 0.910737 
107 1 0.275193 0.121916 0.08043 
123 5 0.236166 0.10516 0.0736363 
50 3 0.257785 0.0735638 0.235329 
54 4 0.215639 0.0926081 0.237185 
55 4 0.272797 0.0362995 0.200365 
110 2 0.293796 0.149598 0.0230287 
111 2 0.276971 0.161188 0.133431 
114 3 0.233342 0.193534 0.146225 
120 4 0.238232 0.234893 0.180587 
124 5 0.301469 0.0863175 0.0903205 
406 3 0.38682 0.0190345 0.0828542 
410 4 0.367793 0.0341772 0.0328287 
59 5 0.350911 0.0475539 0.238442 
409 4 0.386576 0.0466491 0.13094 
106 1 0.341756 0.178749 0.0302849 
109 2 0.337979 0.217873 0.0835425 
121 5 0.370075 0.147148 0.0396047 
108 1 0.324279 0.190319 0.141937 
125 5 0.353343 0.158549 0.153621 
126 5 0.322805 0.220317 0.178057 
47 2 0.293954 0.100482 0.272796 
48 2 0.276951 0.0890068 0.383287 
51 3 0.233418 0.0563062 0.395799 
57 4 0.238117 0.0155246 0.430589 
44 1 0.274996 0.128106 0.330547 
60 5 0.23631 0.14559 0.32175 
785 3 0.25753 0.176173 0.485193 
789 4 0.215078 0.156861 0.487268 
790 4 0.272527 0.213787 0.450514 
43 1 0.341847 0.0712147 0.280195 
46 2 0.338018 0.0318545 0.33355 
58 5 0.369803 0.102999 0.288959 
45 1 0.324467 0.0592547 0.392086 
62 5 0.352932 0.0915311 0.404325 
63 5 0.321554 0.0280929 0.429302 
61 5 0.301748 0.163174 0.341452 
91 3 0.387119 0.230768 0.332922 
95 4 0.367531 0.215506 0.283307 
94 4 0.386575 0.20326 0.380558 
794 5 0.351512 0.204211 0.487731 
779 1 0.275319 0.121789 0.580033 
795 5 0.237297 0.105708 0.573756 
722 3 0.257734 0.0739281 0.735431 
726 4 0.215284 0.0929311 0.737321 
727 4 0.272703 0.0363811 0.700538 
782 2 0.29392 0.149846 0.523086 
783 2 0.276565 0.1608 0.633545 
786 3 0.233558 0.193499 0.646007 
792 4 0.23814 0.234536 0.680517 
796 5 0.300824 0.0877103 0.590668 
1078 3 0.387189 0.0189809 0.582462 
1082 4 0.367551 0.034438 0.533106 
731 5 0.350385 0.0454198 0.736918 
1081 4 0.386481 0.0467795 0.630776 
778 1 0.341918 0.178668 0.529914 
781 2 0.338127 0.218111 0.583397 
793 5 0.370399 0.147982 0.538533 
780 1 0.324342 0.190652 0.642222 
797 5 0.352488 0.158315 0.654493 
798 5 0.322622 0.221595 0.679188 
719 2 0.293996 0.0999751 0.773187 
720 2 0.276592 0.0886883 0.883736 
723 3 0.233718 0.0562707 0.896194 
729 4 0.238079 0.0154703 0.93062 
716 1 0.275614 0.128053 0.830103 
732 5 0.23729 0.143874 0.822379 
113 3 0.257631 0.175996 0.985428 
117 4 0.215304 0.156965 0.987075 
118 4 0.272713 0.213543 0.95065 
715 1 0.341815 0.0711942 0.780441 
718 2 0.338094 0.0323942 0.833295 
730 5 0.370357 0.103556 0.789187 
717 1 0.324291 0.0594887 0.891764 
734 5 0.352907 0.0920817 0.903788 
735 5 0.322435 0.0291422 0.928943 
733 5 0.302199 0.163372 0.841317 
763 3 0.386961 0.230818 0.832392 
767 4 0.367314 0.215805 0.783248 
122 5 0.350538 0.203826 0.988378 
766 4 0.386325 0.203536 0.880434 
701 3 0.242203 0.32396 0.0144035 
705 4 0.28462 0.342732 0.0129675 
706 4 0.22718 0.286497 0.0493331 
128 1 0.224872 0.371947 0.169586 
144 5 0.262915 0.356233 0.178645 
132 2 0.22311 0.410822 0.116532 
135 3 0.266738 0.443646 0.103898 
141 4 0.261897 0.484628 0.0697619 
131 2 0.20618 0.3997 0.227036 
112 3 0.362793 0.269067 0.0827737 
116 4 0.382401 0.284156 0.0333019 
101 5 0.398601 0.296757 0.237185 
115 4 0.363455 0.296662 0.130415 
79 5 0.380435 0.397143 0.0396565 
83 5 0.396618 0.408803 0.154207 
140 4 0.306168 0.4266 0.125308 
145 5 0.200208 0.337154 0.159063 
27 2 0.223378 0.339158 0.366489 
30 3 0.266556 0.306705 0.354051 
36 4 0.261407 0.265647 0.31996 
26 2 0.20612 0.35054 0.476911 
134 3 0.242389 0.426457 0.264677 
138 4 0.28467 0.407321 0.263085 
139 4 0.227511 0.463609 0.299389 
23 1 0.224975 0.377792 0.42012 
39 5 0.263609 0.394047 0.427346 
100 5 0.378894 0.35374 0.288647 
35 4 0.305765 0.323326 0.374878 
104 5 0.397369 0.340936 0.403723 
385 3 0.362996 0.480966 0.332698 
389 4 0.382172 0.465518 0.283285 
752 5 0.399085 0.453821 0.488422 
388 4 0.363427 0.453235 0.380692 
29 3 0.242237 0.323874 0.514967 
33 4 0.284542 0.343003 0.513268 
34 4 0.227284 0.286243 0.549553 
800 1 0.224703 0.371822 0.669743 
816 5 0.263152 0.355463 0.677594 
804 2 0.223215 0.410929 0.616419 
807 3 0.266681 0.44401 0.603659 
813 4 0.26181 0.484837 0.569378 
803 2 0.206042 0.399424 0.726952 
784 3 0.363054 0.269214 0.582433 
788 4 0.38258 0.284088 0.533181 
773 5 0.398712 0.297833 0.737296 
787 4 0.363342 0.296666 0.630648 
751 5 0.380289 0.398384 0.537933 
755 5 0.398942 0.409622 0.653624 
812 4 0.305981 0.426749 0.625099 
699 2 0.22356 0.33901 0.866542 
702 3 0.266766 0.30609 0.853933 
708 4 0.26187 0.265372 0.81953 
698 2 0.206044 0.350064 0.977182 
806 3 0.242311 0.426237 0.7646 
810 4 0.284776 0.407239 0.763149 
811 4 0.227348 0.463716 0.799469 
695 1 0.224543 0.377864 0.919537 
711 5 0.261587 0.393374 0.927855 
772 5 0.379583 0.351562 0.787709 
707 4 0.306272 0.323317 0.874922 
776 5 0.397063 0.342231 0.905004 
1057 3 0.362995 0.480919 0.832654 
1061 4 0.382642 0.465737 0.78303 
80 5 0.398922 0.452722 0.986825 
1060 4 0.363593 0.453332 0.88014 
443 1 0.274697 0.622206 0.0806599 
459 5 0.236202 0.605457 0.0739678 
386 3 0.257834 0.573773 0.235242 
390 4 0.215301 0.593026 0.236573 
391 4 0.272603 0.53662 0.20071 
446 2 0.293982 0.649936 0.0230541 
447 2 0.276786 0.661075 0.133675 
450 3 0.233378 0.693916 0.146056 
456 4 0.238139 0.734588 0.180668 
70 3 0.38695 0.519047 0.0828187 
74 4 0.367755 0.534314 0.0333459 
460 5 0.30028 0.5859 0.090955 
73 4 0.386417 0.546445 0.130404 
395 5 0.350649 0.545632 0.237124 
442 1 0.342077 0.678758 0.0301246 
445 2 0.338108 0.717641 0.0835377 
457 5 0.369763 0.646399 0.0384892 
444 1 0.324023 0.69068 0.142337 
461 5 0.353357 0.65916 0.15278 
462 5 0.322133 0.722452 0.179171 
383 2 0.294024 0.600064 0.272845 
384 2 0.276995 0.588926 0.383456 
387 3 0.233053 0.556276 0.396314 
393 4 0.238427 0.515601 0.430883 
380 1 0.27534 0.628084 0.330202 
396 5 0.236125 0.644808 0.324122 
1121 3 0.257827 0.676437 0.485293 
1125 4 0.215301 0.657238 0.487067 
1126 4 0.272667 0.71353 0.450128 
379 1 0.34205 0.571156 0.280124 
382 2 0.338129 0.532117 0.333199 
394 5 0.370347 0.603314 0.288837 
381 1 0.324452 0.559566 0.39189 
398 5 0.353716 0.59118 0.404342 
399 5 0.321727 0.52926 0.430232 
397 5 0.300575 0.665037 0.340115 
427 3 0.386825 0.731173 0.332719 
431 4 0.367754 0.715514 0.283243 
430 4 0.386207 0.703376 0.380517 
1130 5 0.35042 0.702974 0.488473 
1115 1 0.275106 0.621761 0.580565 
1131 5 0.235734 0.606005 0.573177 
1058 3 0.257795 0.574025 0.735109 
1062 4 0.214968 0.592969 0.736625 
1063 4 0.272904 0.536461 0.70049 
1118 2 0.293518 0.649861 0.523301 
1119 2 0.27694 0.661106 0.633371 
1122 3 0.233679 0.694117 0.6463 
1128 4 0.238458 0.734671 0.680589 
742 3 0.387159 0.519223 0.582737 
746 4 0.36753 0.534427 0.533097 
1132 5 0.300004 0.585956 0.590459 
745 4 0.386513 0.546623 0.630554 
1067 5 0.351274 0.547806 0.737951 
1114 1 0.342044 0.67893 0.529988 
1117 2 0.33795 0.717847 0.583338 
1129 5 0.370954 0.647933 0.539169 
1116 1 0.324261 0.690504 0.642396 
1133 5 0.352137 0.659233 0.653957 
1134 5 0.322158 0.721602 0.680016 
1055 2 0.293672 0.600118 0.773366 
1056 2 0.276821 0.588962 0.883423 
1059 3 0.233573 0.556033 0.896091 
1065 4 0.238021 0.51535 0.930521 
1052 1 0.27489 0.627647 0.830545 
1068 5 0.23594 0.643155 0.824382 
449 3 0.257543 0.676142 0.985439 
453 4 0.215322 0.65699 0.986693 
454 4 0.27288 0.713543 0.950738 
1051 1 0.342116 0.571179 0.780276 
1054 2 0.337919 0.53213 0.832994 
1066 5 0.369755 0.602948 0.786906 
1053 1 0.324354 0.559393 0.892164 
1070 5 0.352726 0.591597 0.905271 
1071 5 0.321917 0.528479 0.929597 
1069 5 0.300866 0.662572 0.840787 
1099 3 0.387217 0.731087 0.832496 
1103 4 0.367465 0.715502 0.782964 
458 5 0.350173 0.704306 0.986849 
1102 4 0.386138 0.70359 0.880744 
1037 3 0.242378 0.823851 0.0148357 
1041 4 0.284603 0.843039 0.0128254 
1042 4 0.22731 0.785876 0.0494493 
464 1 0.225098 0.871902 0.169491 
480 5 0.262961 0.856087 0.177809 
468 2 0.223051 0.911285 0.116429 
471 3 0.266991 0.943805 0.104214 
477 4 0.261532 0.984731 0.069414 
467 2 0.206195 0.899897 0.226855 
448 3 0.363133 0.769071 0.0827022 
452 4 0.382419 0.784183 0.0327859 
437 5 0.399223 0.79655 0.237937 
451 4 0.363923 0.796275 0.130875 
415 5 0.380339 0.897284 0.0374341 
419 5 0.397319 0.907384 0.154294 
476 4 0.3061 0.92689 0.125198 
481 5 0.200202 0.837354 0.159306 
363 2 0.223235 0.839075 0.366324 
366 3 0.266785 0.806219 0.353696 
372 4 0.261622 0.765717 0.319705 
362 2 0.206043 0.85029 0.477184 
470 3 0.242312 0.926134 0.264717 
474 4 0.284532 0.907318 0.262836 
475 4 0.22733 0.963622 0.299455 
359 1 0.224619 0.878002 0.419747 
375 5 0.262329 0.89344 0.428057 
436 5 0.380054 0.853023 0.287816 
371 4 0.306202 0.823463 0.375415 
440 5 0.397167 0.843167 0.403754 
49 3 0.363027 0.980882 0.332942 
53 4 0.382513 0.965467 0.282987 
52 4 0.363222 0.953041 0.380853 
1088 5 0.398707 0.953931 0.487218 
365 3 0.242174 0.823796 0.514621 
369 4 0.28458 0.842673 0.513258 
370 4 0.227151 0.786521 0.549266 
1136 1 0.224906 0.871996 0.669436 
1152 5 0.261822 0.854942 0.67758 
1140 2 0.223242 0.911066 0.616526 
1143 3 0.266414 0.943706 0.603873 
1149 4 0.26194 0.984653 0.569439 
1139 2 0.206126 0.899851 0.726837 
1120 3 0.362834 0.768987 0.582374 
1124 4 0.382456 0.78447 0.533261 
1148 4 0.306024 0.926663 0.625459 
1123 4 0.363525 0.796521 0.630154 
1087 5 0.379941 0.897175 0.539707 
1091 5 0.398017 0.907706 0.654491 
1035 2 0.2234 0.839124 0.866717 
1038 3 0.266532 0.805995 0.853901 
1044 4 0.262283 0.765629 0.819203 
1034 2 0.206106 0.850424 0.977048 
1142 3 0.242357 0.926187 0.764788 
1146 4 0.28461 0.90738 0.762831 
1147 4 0.227172 0.96384 0.79928 
1031 1 0.224928 0.878162 0.919402 
1047 5 0.263808 0.894119 0.927276 
1108 5 0.380098 0.853867 0.788562 
1043 4 0.305866 0.823192 0.875415 
1112 5 0.397882 0.841614 0.902831 
721 3 0.363057 0.981102 0.832775 
725 4 0.382352 0.96542 0.783352 
724 4 0.363752 0.953344 0.880609 
416 5 0.399636 0.952894 0.987355 
995 3 0.507567 0.0737299 0.0142787 
1000 4 0.522756 0.0362436 0.0496752 
170 1 0.525132 0.121878 0.169802 
187 5 0.551694 0.0862847 0.15857 
171 1 0.574573 0.190721 0.107793 
174 2 0.526748 0.161267 0.116465 
189 5 0.571938 0.221535 0.0701427 
169 1 0.592042 0.17929 0.219861 
172 2 0.588179 0.218072 0.166307 
173 2 0.543658 0.149562 0.226645 
999 4 0.465401 0.0926998 0.0133242 
186 5 0.487979 0.106145 0.175808 
177 3 0.483622 0.193825 0.103974 
183 4 0.488239 0.234641 0.0698854 
182 4 0.443698 0.176664 0.125178 
318 1 0.574071 0.0594187 0.358493 
321 2 0.526675 0.0885726 0.366379 
336 5 0.572455 0.0280506 0.321299 
316 1 0.592235 0.0710802 0.469747 
319 2 0.588228 0.0315407 0.41653 
320 2 0.543763 0.100077 0.477229 
176 3 0.507858 0.176492 0.264681 
181 4 0.522824 0.21354 0.299534 
317 1 0.524872 0.128432 0.419866 
334 5 0.550852 0.162289 0.410013 
324 3 0.482976 0.0563531 0.354266 
330 4 0.488258 0.0155164 0.319724 
329 4 0.444003 0.073192 0.375346 
180 4 0.465172 0.156828 0.262936 
333 5 0.486985 0.143324 0.42765 
323 3 0.507901 0.0737351 0.514527 
328 4 0.523064 0.0363016 0.549649 
842 1 0.525294 0.1218 0.669627 
859 5 0.550388 0.0859856 0.659374 
843 1 0.574574 0.190785 0.608012 
846 2 0.527046 0.161453 0.616411 
861 5 0.571359 0.222603 0.570896 
841 1 0.591894 0.178833 0.720021 
844 2 0.587753 0.217966 0.665995 
845 2 0.543912 0.150113 0.727191 
327 4 0.465445 0.0929655 0.513053 
858 5 0.487358 0.105491 0.67566 
849 3 0.483458 0.193839 0.603728 
855 4 0.488382 0.23457 0.569257 
854 4 0.443867 0.1767 0.625123 
990 1 0.574599 0.059557 0.857741 
993 2 0.527052 0.0889929 0.866068 
1008 5 0.571955 0.0279473 0.820451 
988 1 0.591966 0.0711217 0.969763 
991 2 0.588234 0.0318555 0.916389 
992 2 0.543616 0.100142 0.976734 
848 3 0.507843 0.176152 0.764927 
853 4 0.522354 0.213786 0.799528 
989 1 0.525327 0.12846 0.920084 
1006 5 0.550708 0.163714 0.90873 
996 3 0.483386 0.0561917 0.853672 
1002 4 0.488288 0.0155233 0.819315 
1001 4 0.443965 0.0732927 0.875124 
852 4 0.46519 0.156799 0.763127 
1005 5 0.487042 0.144531 0.927376 
857 5 0.599851 0.203061 0.760616 
81 5 0.513147 0.35623 0.0734015 
96 4 0.534889 0.342895 0.236702 
77 4 0.556152 0.426771 0.12468 
72 3 0.516599 0.443455 0.146116 
78 4 0.511881 0.484401 0.180613 
65 1 0.474609 0.371901 0.0800354 
82 5 0.450107 0.337163 0.0909215 
92 3 0.492353 0.323234 0.235327 
97 4 0.477419 0.286464 0.20039 
64 1 0.408114 0.429158 0.0299344 
67 2 0.4123 0.467917 0.0839372 
68 2 0.456184 0.400014 0.0233465 
66 1 0.42567 0.440637 0.142467 
69 2 0.472943 0.410938 0.133495 
84 5 0.428032 0.470268 0.179929 
98 4 0.556117 0.323339 0.374697 
93 3 0.516455 0.306235 0.396065 
99 4 0.511633 0.265534 0.430357 
102 5 0.512904 0.393221 0.324251 
747 4 0.534378 0.407046 0.487195 
85 1 0.408098 0.32075 0.280143 
88 2 0.411591 0.281956 0.333248 
89 2 0.456332 0.350327 0.27332 
87 1 0.425726 0.309531 0.391694 
90 2 0.473153 0.339318 0.383171 
105 5 0.428784 0.27919 0.429567 
86 1 0.474812 0.378009 0.330482 
103 5 0.448189 0.413536 0.341596 
743 3 0.49239 0.426311 0.485217 
748 4 0.477214 0.463661 0.450113 
753 5 0.513162 0.356588 0.57255 
768 4 0.534928 0.342904 0.736798 
749 4 0.556175 0.426659 0.624369 
744 3 0.516785 0.443656 0.646046 
750 4 0.512012 0.484357 0.680501 
737 1 0.474683 0.372196 0.58031 
754 5 0.448961 0.336345 0.590219 
764 3 0.492389 0.32371 0.735425 
769 4 0.477345 0.286537 0.700781 
736 1 0.407951 0.429102 0.530068 
739 2 0.412139 0.467798 0.583221 
740 2 0.456165 0.399732 0.523494 
738 1 0.425385 0.44085 0.64192 
741 2 0.473321 0.41099 0.633641 
756 5 0.428194 0.471843 0.680205 
770 4 0.556245 0.323237 0.874738 
765 3 0.516472 0.306079 0.896125 
771 4 0.511814 0.265422 0.930651 
774 5 0.513586 0.393861 0.824434 
75 4 0.534721 0.406914 0.986853 
757 1 0.408265 0.320721 0.779991 
760 2 0.412036 0.281692 0.83331 
761 2 0.456068 0.350235 0.772998 
759 1 0.425841 0.309382 0.891541 
762 2 0.473099 0.338911 0.883227 
777 5 0.42798 0.277973 0.929952 
758 1 0.474972 0.378128 0.830192 
775 5 0.449599 0.415051 0.840466 
71 3 0.492168 0.426481 0.985057 
76 4 0.47737 0.463596 0.950552 
1331 3 0.507827 0.573569 0.0145113 
1336 4 0.522896 0.536248 0.0497753 
506 1 0.525248 0.62195 0.169903 
523 5 0.552195 0.586728 0.159277 
507 1 0.57425 0.690726 0.10787 
510 2 0.526708 0.661178 0.116447 
525 5 0.571722 0.721318 0.0704289 
505 1 0.591797 0.67872 0.219947 
508 2 0.588028 0.717825 0.166445 
509 2 0.543961 0.64997 0.226637 
1335 4 0.465287 0.592698 0.0131508 
522 5 0.487085 0.606001 0.177872 
513 3 0.483315 0.693797 0.103922 
519 4 0.48797 0.734705 0.0693572 
518 4 0.443853 0.676469 0.125304 
1340 5 0.599928 0.547644 0.0123137 
654 1 0.574539 0.559609 0.358277 
657 2 0.526849 0.589058 0.366079 
672 5 0.5715 0.528585 0.320407 
652 1 0.591871 0.571098 0.470159 
655 2 0.587914 0.531724 0.41636 
656 2 0.543732 0.600141 0.476496 
512 3 0.507857 0.676296 0.265041 
517 4 0.522857 0.713398 0.29945 
653 1 0.525073 0.627784 0.419604 
670 5 0.55065 0.664857 0.409274 
660 3 0.483425 0.55644 0.353428 
666 4 0.488188 0.515173 0.319504 
665 4 0.443878 0.573184 0.375243 
516 4 0.465323 0.656996 0.26296 
669 5 0.486942 0.644785 0.427681 
659 3 0.507931 0.573851 0.514604 
664 4 0.522727 0.536481 0.549783 
1178 1 0.525092 0.621961 0.669893 
1195 5 0.551004 0.58636 0.659199 
1179 1 0.574191 0.690643 0.60815 
1182 2 0.52693 0.661145 0.616522 
1197 5 0.570689 0.721592 0.571856 
1177 1 0.591777 0.679298 0.720136 
1180 2 0.587974 0.718158 0.666613 
1181 2 0.544218 0.649517 0.726944 
663 4 0.465387 0.59304 0.513079 
1194 5 0.486738 0.60537 0.677335 
1185 3 0.483432 0.693823 0.604213 
1191 4 0.488472 0.734586 0.569371 
1190 4 0.443827 0.67687 0.625134 
1326 1 0.57412 0.55944 0.858444 
1329 2 0.526627 0.588939 0.866448 
1344 5 0.571751 0.52867 0.820247 
1324 1 0.591914 0.570685 0.969849 
1327 2 0.588122 0.531959 0.916262 
1328 2 0.543791 0.600377 0.976918 
1184 3 0.507781 0.676303 0.764525 
1189 4 0.522756 0.713397 0.799747 
1325 1 0.524933 0.628043 0.919322 
1342 5 0.551408 0.662944 0.908562 
1332 3 0.483182 0.556145 0.853681 
1338 4 0.488232 0.515436 0.819432 
1337 4 0.443848 0.57356 0.875253 
1188 4 0.465357 0.657091 0.763058 
1341 5 0.487108 0.643829 0.927379 
417 5 0.513388 0.855324 0.0723454 
432 4 0.534501 0.842955 0.236826 
413 4 0.556038 0.9269 0.124882 
408 3 0.516495 0.943769 0.146204 
414 4 0.51195 0.984707 0.180534 
401 1 0.474812 0.871899 0.0801961 
418 5 0.44908 0.837363 0.0920064 
428 3 0.492323 0.823612 0.235459 
433 4 0.477041 0.786473 0.200504 
400 1 0.407994 0.929104 0.0300612 
403 2 0.411635 0.967828 0.0836185 
404 2 0.456211 0.899972 0.0233178 
402 1 0.425556 0.940484 0.141993 
405 2 0.473161 0.911098 0.133796 
420 5 0.427647 0.971291 0.179497 
434 4 0.556072 0.823429 0.374428 
429 3 0.516671 0.806539 0.396425 
435 4 0.511794 0.765244 0.430283 
438 5 0.513429 0.893692 0.322799 
1083 4 0.534787 0.907177 0.486827 
421 1 0.408102 0.821112 0.279857 
424 2 0.411969 0.782242 0.333546 
425 2 0.456353 0.850437 0.273016 
423 1 0.425858 0.809444 0.391852 
426 2 0.47314 0.838785 0.383609 
441 5 0.42855 0.777961 0.431084 
422 1 0.474912 0.877733 0.330043 
439 5 0.448237 0.914326 0.340275 
1079 3 0.492317 0.926195 0.485548 
1084 4 0.477282 0.963607 0.450514 
1089 5 0.513895 0.856191 0.573047 
1104 4 0.534563 0.843044 0.736637 
1085 4 0.556217 0.927009 0.624857 
1080 3 0.516553 0.943827 0.64596 
1086 4 0.511776 0.984348 0.68065 
1073 1 0.474588 0.872076 0.580158 
1090 5 0.449323 0.836899 0.589281 
1100 3 0.492006 0.82387 0.735384 
1105 4 0.477247 0.786253 0.700654 
1072 1 0.4082 0.929162 0.529977 
1075 2 0.412051 0.967876 0.583559 
1076 2 0.456004 0.89974 0.523247 
1074 1 0.425571 0.940746 0.642257 
1077 2 0.473066 0.911351 0.633176 
1092 5 0.428319 0.971612 0.681358 
1109 5 0.400011 0.79663 0.736789 
1106 4 0.556046 0.82322 0.874942 
1101 3 0.516427 0.806397 0.896218 
1107 4 0.512009 0.765487 0.930595 
1110 5 0.512082 0.894424 0.822888 
411 4 0.534835 0.906857 0.987072 
1093 1 0.408229 0.821235 0.77983 
1096 2 0.411891 0.782063 0.83325 
1097 2 0.456034 0.8504 0.773061 
1095 1 0.425512 0.80905 0.891842 
1098 2 0.473029 0.838875 0.883165 
1113 5 0.428024 0.77809 0.929363 
1094 1 0.474917 0.877659 0.829904 
1111 5 0.448798 0.913621 0.841509 
407 3 0.492434 0.92614 0.985178 
412 4 0.477358 0.963625 0.950429 
1004 5 0.600281 0.0456845 0.0106013 
640 4 0.636249 0.0465418 0.119543 
637 3 0.63695 0.0191025 0.167324 
641 4 0.617503 0.0343322 0.216744 
188 5 0.602755 0.157291 0.095343 
287 4 0.693834 0.176689 0.125011 
184 5 0.621481 0.146314 0.209379 
275 1 0.775189 0.121793 0.0804428 
291 5 0.737317 0.105971 0.0730124 
218 3 0.757864 0.073819 0.235466 
222 4 0.715518 0.0927783 0.237092 
223 4 0.772807 0.0363336 0.200345 
278 2 0.793993 0.149582 0.0229295 
279 2 0.777064 0.160931 0.133451 
282 3 0.733313 0.193859 0.146249 
288 4 0.738308 0.234487 0.180617 
224 4 0.693979 0.0729636 0.374914 
335 5 0.602211 0.0914777 0.346869 
331 5 0.620095 0.103128 0.461075 
185 5 0.600858 0.204116 0.26172 
199 4 0.636334 0.203523 0.369396 
196 3 0.636968 0.231076 0.417439 
200 4 0.617653 0.215572 0.467169 
215 2 0.793823 0.100577 0.273099 
216 2 0.776923 0.088966 0.383613 
219 3 0.733163 0.0562275 0.395778 
225 4 0.73813 0.0151756 0.430153 
212 1 0.775112 0.127928 0.329863 
228 5 0.737774 0.145196 0.322131 
953 3 0.757837 0.175961 0.485668 
957 4 0.715277 0.157121 0.487031 
958 4 0.772798 0.213595 0.450289 
229 5 0.79956 0.163345 0.341151 
332 5 0.600478 0.0466913 0.512546 
1312 4 0.636384 0.0463887 0.619072 
1309 3 0.637027 0.0188738 0.667217 
1313 4 0.617872 0.0344737 0.716776 
860 5 0.602665 0.158952 0.594115 
959 4 0.693899 0.176667 0.62494 
856 5 0.620257 0.146319 0.710336 
947 1 0.775419 0.121987 0.58013 
963 5 0.736986 0.1058 0.572948 
890 3 0.757863 0.07378 0.735347 
894 4 0.715297 0.0931041 0.73686 
895 4 0.772635 0.036234 0.700362 
950 2 0.793851 0.149935 0.522863 
951 2 0.776584 0.160981 0.633114 
954 3 0.733314 0.193821 0.646242 
960 4 0.738097 0.234612 0.680927 
896 4 0.694266 0.0730425 0.874607 
1007 5 0.603336 0.0909445 0.845098 
1003 5 0.619648 0.102337 0.960524 
286 4 0.772653 0.213959 0.950303 
871 4 0.636265 0.203496 0.868923 
868 3 0.636865 0.230872 0.917296 
872 4 0.617611 0.215675 0.966717 
887 2 0.793945 0.10037 0.773418 
888 2 0.776876 0.0888044 0.883375 
891 3 0.733289 0.0564021 0.896202 
897 4 0.738076 0.0153784 0.930247 
884 1 0.775099 0.128073 0.830339 
900 5 0.737314 0.143632 0.822795 
281 3 0.757592 0.175973 0.985525 
285 4 0.715441 0.157367 0.986957 
178 4 0.613531 0.296685 0.119123 
878 5 0.648914 0.296888 0.0120336 
175 3 0.613162 0.268877 0.167672 
179 4 0.632507 0.284392 0.217051 
313 5 0.699392 0.336223 0.159459 
297 1 0.675787 0.440685 0.107822 
314 5 0.647138 0.408549 0.0959641 
315 5 0.677707 0.471577 0.0704852 
295 1 0.658097 0.428859 0.220122 
298 2 0.661698 0.468116 0.1666 