ITEM: TIMESTEP
1
ITEM: NUMBER OF ATOMS
1344
ITEM: BOX BOUNDS xy xz yz pp pp pp
0.0000000000000000e+00 2.6364000000000001e+01 0.0000000000000000e+00
0.0000000000000000e+00 2.3148000000000000e+01 0.0000000000000000e+00
-0.0000000000000000e+00 2.1417999999999999e+01 0.0000000000000000e+00
ITEM: ATOMS id type xu yu zu 
827 3 0.203845 1.70621 21.7286 
832 4 0.601916 0.840587 22.4722 
2 1 0.675315 2.82396 3.63885 
19 5 1.34948 1.99744 3.42026 
3 1 1.95715 4.40866 2.3068 
6 2 0.709113 3.73224 2.49486 
21 5 1.89286 5.13086 1.53574 
1 1 2.42749 4.1406 4.7209 
4 2 2.31448 5.04782 3.56323 
5 2 1.15922 3.46955 4.85373 
836 5 2.65381 1.07705 21.6429 
472 4 3.60373 24.2303 2.56451 
469 3 3.61309 23.5861 3.58487 
473 4 3.09866 23.9418 4.64533 
20 5 2.70176 3.63695 2.0436 
119 4 5.10821 4.09604 2.67217 
16 5 3.16621 3.36725 4.54213 
150 1 1.96578 1.36776 7.66202 
153 2 0.703418 2.04896 7.84341 
168 5 1.89356 0.667219 6.84741 
148 1 2.42546 1.64532 10.0603 
151 2 2.31673 0.738775 8.91352 
152 2 1.15856 2.32201 10.2176 
8 3 0.205226 4.0757 5.67336 
13 4 0.604186 4.93806 6.41552 
149 1 0.665889 2.96619 8.98317 
166 5 1.33052 3.78585 8.77016 
56 4 5.11554 1.69904 8.03016 
167 5 2.69887 2.12224 7.41122 
163 5 3.18143 2.37816 9.88102 
17 5 2.63568 4.69811 5.59023 
31 4 3.59917 4.71347 7.9109 
28 3 3.60586 5.34574 8.93498 
32 4 3.08827 4.98793 10.0012 
155 3 0.205945 1.71032 11.0199 
160 4 0.596567 0.846408 11.7661 
674 1 0.661759 2.82539 14.3438 
691 5 1.34877 2.00568 14.0879 
675 1 1.95673 4.41482 13.0188 
678 2 0.710916 3.72374 13.1994 
693 5 1.90613 5.12257 12.2056 
673 1 2.42967 4.1417 15.43 
676 2 2.32145 5.04717 14.2756 
677 2 1.15488 3.46645 15.5709 
164 5 2.63887 1.09039 10.9712 
1144 4 3.59807 24.2208 13.2673 
1141 3 3.60859 23.5941 14.2885 
1145 4 3.10456 23.9416 15.3543 
692 5 2.72418 3.67606 12.7709 
791 4 5.10701 4.09318 13.3752 
688 5 3.15368 3.39574 15.2053 
822 1 1.9519 1.37271 18.3663 
825 2 0.705027 2.05729 18.5581 
840 5 1.87385 0.656915 17.567 
820 1 2.42998 1.64715 20.7772 
823 2 2.32306 0.744751 19.6278 
824 2 1.15766 2.32358 20.9191 
680 3 0.21034 4.076 16.3754 
685 4 0.596573 4.94062 17.1278 
821 1 0.659824 2.9586 19.6976 
838 5 1.33818 3.78587 19.5028 
728 4 5.11311 1.70342 18.7387 
839 5 2.70479 2.11837 18.1466 
835 5 3.16943 2.39469 20.5973 
689 5 2.68291 4.70144 16.3316 
703 4 3.5977 4.70652 18.6174 
700 3 3.60932 5.33988 19.6415 
704 4 3.10298 4.98929 20.7137 
249 5 26.6992 8.24667 1.57938 
264 4 27.2774 7.94128 5.07033 
245 4 27.8396 9.87923 2.6721 
240 3 26.7994 10.2705 3.12178 
246 4 26.6724 11.2203 3.8676 
10 4 2.9893 6.86647 2.55737 
710 5 3.93536 6.86694 21.6679 
7 3 2.98294 6.23001 3.59509 
11 4 3.49425 6.57105 4.64271 
142 5 3.40737 9.19123 4.51413 
129 1 4.63108 10.1941 2.3094 
146 5 3.91334 9.44728 2.06049 
147 5 4.70063 10.9385 1.50945 
127 1 4.16534 9.92763 4.71316 
130 2 4.2683 10.8311 3.57192 
266 4 27.8441 7.48451 8.02953 
261 3 26.8018 7.08613 8.48675 
267 4 26.679 6.15054 9.22277 
270 5 26.7301 9.15228 6.88387 
915 4 27.2733 9.42769 10.4301 
24 1 4.63206 7.16106 7.6683 
41 5 3.87786 7.90203 7.42029 
42 5 4.71622 6.45942 6.86558 
22 1 4.16384 7.42552 10.0698 
25 2 4.27693 6.53214 8.91877 
37 5 3.39577 8.17663 9.86982 
143 5 3.91991 10.5043 5.60536 
493 4 2.9899 10.4879 7.91412 
40 5 5.2389 9.53896 8.76083 
490 3 2.97834 11.1307 8.93917 
494 4 3.50001 10.7758 9.99936 
921 5 26.6858 8.21474 12.2894 
936 4 27.2817 7.93242 15.7893 
917 4 27.847 9.88369 13.3819 
912 3 26.8014 10.2617 13.8343 
918 4 26.6727 11.2151 14.5825 
38 5 3.95625 6.88318 10.971 
682 4 2.98878 6.87303 13.265 
679 3 2.98387 6.22615 14.2954 
683 4 3.50019 6.58493 15.3537 
817 5 5.26946 7.78067 14.1168 
801 1 4.63106 10.2078 13.0231 
818 5 3.87687 9.46158 12.7524 
819 5 4.70659 10.9546 12.205 
799 1 4.16457 9.93163 15.4172 
802 2 4.26638 10.8259 14.2766 
814 5 3.41299 9.20061 15.2263 
938 4 27.8419 7.48445 18.7386 
933 3 26.8024 7.09899 19.191 
939 4 26.6804 6.14251 19.9334 
942 5 26.692 9.16222 17.6129 
243 4 27.2752 9.41632 -0.280388 
696 1 4.63355 7.16584 18.3688 
713 5 3.90106 7.90411 18.1127 
714 5 4.69249 6.47194 17.5752 
694 1 4.17746 7.43143 20.7694 
697 2 4.26683 6.53005 19.6342 
709 5 3.41071 8.16539 20.5658 
815 5 3.93542 10.4925 16.3322 
1165 4 2.98703 10.4928 18.6224 
712 5 5.25656 9.54724 19.4828 
1162 3 2.98417 11.1411 19.6443 
1166 4 3.49503 10.7728 20.7105 
1163 3 0.19736 13.2833 21.7406 
1168 4 0.606222 12.4147 22.4798 
338 1 0.667003 14.3996 3.63106 
355 5 1.33756 13.605 3.40512 
339 1 1.95564 15.9926 2.30961 
342 2 0.703382 15.311 2.49647 
357 5 1.92631 16.6923 1.52278 
337 1 2.42823 15.7199 4.70893 
340 2 2.322 16.6159 3.57148 
341 2 1.15512 15.0405 4.8627 
136 4 3.59951 12.6551 2.55781 
1172 5 2.65576 12.6793 21.6918 
133 3 3.61511 12.0099 3.58428 
137 4 3.10097 12.3693 4.64914 
356 5 2.70023 15.2225 2.01474 
455 4 5.11614 15.6658 2.67243 
352 5 3.21111 14.9722 4.52449 
486 1 1.96013 12.9458 7.66877 
489 2 0.706751 13.6337 7.8517 
504 5 1.90931 12.2376 6.87747 
484 1 2.42432 13.2263 10.0694 
487 2 2.32741 12.313 8.92101 
488 2 1.1602 13.9006 10.2157 
344 3 0.204357 15.6564 5.67182 
349 4 0.591705 16.5151 6.41927 
485 1 0.655768 14.5337 8.99448 
502 5 1.32869 15.3538 8.77392 
392 4 5.11327 13.2705 8.02763 
503 5 2.70149 13.6802 7.37979 
499 5 3.18312 13.9432 9.88714 
353 5 2.64927 16.2875 5.59993 
367 4 3.59892 16.2792 7.91008 
364 3 3.60437 16.9201 8.9408 
368 4 3.09372 16.5695 10.0061 
491 3 0.19771 13.2814 11.0237 
496 4 0.603337 12.421 11.7697 
1010 1 0.661393 14.4041 14.3504 
1027 5 1.33899 13.5796 14.1416 
1011 1 1.9652 15.992 13.0289 
1014 2 0.708447 15.3047 13.2049 
1029 5 1.91923 16.703 12.208 
1009 1 2.42847 15.7154 15.4166 
1012 2 2.31432 16.6168 14.2803 
1013 2 1.16447 15.0454 15.5662 
808 4 3.6033 12.6502 13.2627 
500 5 2.62475 12.628 10.9562 
805 3 3.61154 12.0145 14.2927 
809 4 3.0919 12.3679 15.3559 
1028 5 2.70852 15.2358 12.7943 
1127 4 5.11176 15.6595 13.3803 
1024 5 3.15807 14.9745 15.22 
1158 1 1.96152 12.9429 18.3751 
1161 2 0.696195 13.6307 18.5544 
1176 5 1.89392 12.2281 17.6148 
1156 1 2.41603 13.215 20.7709 
1159 2 2.3188 12.3189 19.6298 
1160 2 1.15628 13.8919 20.9219 
1016 3 0.205857 15.6553 16.3761 
1021 4 0.602581 16.522 17.1223 
1157 1 0.671135 14.5424 19.6999 
1174 5 1.33169 15.3456 19.5042 
1064 4 5.12201 13.2773 18.7389 
1175 5 2.71297 13.6961 18.1187 
1171 5 3.15757 13.9435 20.5872 
1025 5 2.67873 16.2988 16.3224 
1039 4 3.59491 16.286 18.6217 
1036 3 3.61557 16.9179 19.6447 
1040 4 3.10089 16.5653 20.7073 
585 5 26.7031 19.8194 1.5714 
600 4 27.2776 19.5173 5.07141 
581 4 27.8378 21.4426 2.67216 
576 3 26.803 21.8551 3.13553 
582 4 26.671 22.7924 3.86372 
346 4 2.99657 18.436 2.56147 
1046 5 3.94612 18.4369 21.6884 
343 3 2.98116 17.8021 3.58134 
347 4 3.48498 18.1566 4.63955 
478 5 3.41613 20.7638 4.5304 
465 1 4.63468 21.7701 2.31307 
482 5 3.87587 21.0089 2.02288 
483 5 4.68783 22.4646 1.50344 
463 1 4.17065 21.5038 4.71233 
466 2 4.2736 22.4067 3.57004 
602 4 27.8414 19.0717 8.02582 
597 3 26.8035 18.6647 8.48874 
603 4 26.6793 17.7152 9.22129 
606 5 26.712 20.7168 6.92201 
1251 4 27.2733 20.9966 10.4275 
360 1 4.63173 18.7361 7.66 
377 5 3.85364 19.4606 7.40768 
378 5 4.7324 18.0377 6.85016 
358 1 4.16371 19.012 10.0717 
361 2 4.28009 18.1053 8.93292 
373 5 3.45122 19.7471 9.88294 
157 4 2.98871 -1.08572 7.91098 
479 5 3.92391 22.0599 5.62791 
154 3 2.98196 -0.437526 8.93924 
158 4 3.494 -0.788651 10.0012 
376 5 5.25641 21.1522 8.78206 
1257 5 26.6908 19.8105 12.2836 
1272 4 27.276 19.5073 15.782 
1253 4 27.8412 21.4455 13.3785 
1248 3 26.8037 21.8557 13.8442 
1254 4 26.6772 22.7925 14.5804 
374 5 3.92309 18.4273 10.9638 
1018 4 2.99617 18.4365 13.2677 
1015 3 2.98045 17.8023 14.2907 
1019 4 3.48902 18.1609 15.3619 
1153 5 5.26221 19.3665 14.1324 
1137 1 4.62722 21.7719 13.0255 
1154 5 3.90593 21.0248 12.7508 
1155 5 4.68676 22.5067 12.2074 
1135 1 4.16788 21.4997 15.42 
1138 2 4.26665 22.4054 14.2747 
1150 5 3.41277 20.7459 15.2304 
1274 4 27.8331 19.0575 18.741 
1269 3 26.7976 18.6579 19.202 
1275 4 26.6685 17.7116 19.9247 
1278 5 26.714 20.6954 17.6217 
579 4 27.2801 21.0053 -0.275633 
1032 1 4.63411 18.7307 18.3843 
1049 5 3.89788 19.514 18.1146 
1050 5 4.68545 18.0127 17.5833 
1030 1 4.16115 19.0096 20.7716 
1033 2 4.27792 18.0953 19.6251 
1045 5 3.40029 19.7481 20.585 
829 4 2.98766 -1.07888 18.6211 
1151 5 3.93918 22.0791 16.307 
826 3 2.9753 -0.44611 19.6436 
830 4 3.49167 -0.791519 20.7184 
1048 5 5.24884 21.1401 19.5062 
107 1 7.2552 2.82211 1.72265 
123 5 6.22628 2.43425 1.57714 
50 3 6.79623 1.70285 5.04027 
54 4 5.6851 2.14369 5.08003 
55 4 7.19202 0.840261 4.29142 
110 2 7.74563 3.46288 0.493229 
111 2 7.30206 3.73117 2.85782 
114 3 6.15182 4.47993 3.13184 
120 4 6.28075 5.43731 3.86781 
124 5 7.94793 1.99808 1.93449 
406 3 10.1981 23.5886 1.77457 
410 4 9.69649 23.9391 0.703126 
59 5 9.25142 1.10078 5.10695 
409 4 10.1917 24.2278 2.80446 
106 1 9.01005 4.13768 0.648642 
109 2 8.91048 5.04332 1.78931 
121 5 9.75665 3.40619 0.848254 
108 1 8.54928 4.40549 3.04 
125 5 9.31553 3.67009 3.29026 
126 5 8.51042 5.09989 3.81363 
47 2 7.74981 2.32596 5.84274 
48 2 7.30153 2.06033 8.20924 
51 3 6.15383 1.30338 8.47722 
57 4 6.27771 0.359363 9.22236 
44 1 7.24998 2.9654 7.07967 
60 5 6.23008 3.37013 6.89124 
785 3 6.78951 4.07805 10.3919 
789 4 5.67032 3.63101 10.4363 
790 4 7.18491 4.94875 9.64912 
43 1 9.01246 1.64848 6.00121 
46 2 8.91151 0.737368 7.14398 
58 5 9.74949 2.38423 6.18892 
45 1 8.55424 1.37163 8.3977 
62 5 9.30471 2.11876 8.65983 
63 5 8.47746 0.650295 9.19479 
61 5 7.95528 3.77714 7.31322 
91 3 10.206 5.34181 7.13052 
95 4 9.6896 4.98853 6.06786 
94 4 10.1917 4.70505 8.15079 
794 5 9.26725 4.72708 10.4462 
779 1 7.25852 2.81918 12.4231 
795 5 6.25611 2.44692 12.2887 
722 3 6.79491 1.71129 15.7515 
726 4 5.67575 2.15117 15.7919 
727 4 7.18953 0.84215 15.0041 
782 2 7.74892 3.46863 11.2035 
783 2 7.29135 3.72219 13.5693 
786 3 6.15752 4.4791 13.8362 
792 4 6.27832 5.42903 14.5753 
796 5 7.93093 2.03032 12.6509 
1078 3 10.2078 23.5874 12.4752 
1082 4 9.69012 23.9452 11.4181 
731 5 9.23755 1.05138 15.7833 
1081 4 10.1892 24.2309 13.51 
778 1 9.01433 4.13581 11.3497 
781 2 8.91437 5.04883 12.4952 
793 5 9.76519 3.42548 11.5343 
780 1 8.55095 4.41322 13.7551 
797 5 9.29299 3.66468 14.0179 
798 5 8.5056 5.12947 14.5468 
719 2 7.75092 2.31422 16.5601 
720 2 7.29206 2.05296 18.9279 
723 3 6.16174 1.30256 19.1947 
729 4 6.27671 0.358107 19.932 
716 1 7.2663 2.96416 17.7791 
732 5 6.2559 3.33039 17.6137 
113 3 6.79218 4.07395 -0.312093 
117 4 5.67627 3.63343 -0.276831 
118 4 7.1898 4.94309 -1.05699 
715 1 9.01161 1.648 16.7155 
718 2 8.91352 0.749862 17.8475 
730 5 9.76408 2.39712 16.9028 
717 1 8.54961 1.37705 19.0998 
734 5 9.30404 2.13151 19.3573 
735 5 8.50067 0.674583 19.8961 
733 5 7.96718 3.78172 18.0193 
763 3 10.2018 5.34298 17.8282 
767 4 9.68386 4.99545 16.7756 
122 5 9.24158 4.71816 -0.248929 
766 4 10.1851 4.71144 18.8571 
701 3 6.38544 7.49904 21.7265 
705 4 7.50371 7.93356 21.6957 
706 4 5.98937 6.63183 22.4746 
128 1 5.92851 8.60983 3.6322 
144 5 6.93148 8.24609 3.82622 
132 2 5.88208 9.50971 2.49589 
135 3 7.03227 10.2695 2.22529 
141 4 6.90464 11.2182 1.49416 
131 2 5.43572 9.25225 4.86265 
112 3 9.56468 6.22837 1.77285 
116 4 10.0816 6.57764 0.71326 
101 5 10.5087 6.86933 5.08002 
115 4 9.58213 6.86713 2.79323 
79 5 10.0298 9.19307 0.849362 
83 5 10.4564 9.46296 3.30281 
140 4 8.07182 9.87494 2.68385 
145 5 5.27828 7.80444 3.40681 
27 2 5.88914 7.85082 7.84945 
30 3 7.02749 7.0996 7.58306 
36 4 6.89174 6.1492 6.8529 
26 2 5.43416 8.11429 10.2145 
134 3 6.39033 9.87163 5.66885 
138 4 7.50504 9.42866 5.63476 
139 4 5.9981 10.7316 6.41232 
23 1 5.93125 8.74513 8.99813 
39 5 6.94979 9.12139 9.15289 
100 5 9.98915 8.18838 6.18224 
35 4 8.06118 7.48435 8.02914 
104 5 10.4762 7.89198 8.64693 
385 3 9.57002 11.1334 7.12574 
389 4 10.0756 10.7758 6.06739 
752 5 10.5215 10.505 10.461 
388 4 9.5814 10.4915 8.15366 
29 3 6.38634 7.49702 11.0296 
33 4 7.50166 7.93984 10.9932 
34 4 5.99213 6.62594 11.7703 
800 1 5.92408 8.60693 14.3445 
816 5 6.93774 8.22826 14.5127 
804 2 5.88484 9.51219 13.2025 
807 3 7.03077 10.2779 12.9292 
813 4 6.90235 11.223 12.1949 
803 2 5.4321 9.24586 15.5699 
784 3 9.57156 6.23177 12.4745 
788 4 10.0863 6.57606 11.4197 
773 5 10.5116 6.89424 15.7914 
787 4 9.57914 6.86722 13.5072 
751 5 10.0259 9.22179 11.5214 
755 5 10.5177 9.48193 13.9993 
812 4 8.06689 9.87839 13.3884 
699 2 5.89393 7.84741 18.5596 
702 3 7.03302 7.08537 18.2895 
708 4 6.90393 6.14282 17.5527 
698 2 5.43213 8.10328 20.9293 
806 3 6.38829 9.86654 16.3762 
810 4 7.50783 9.42678 16.3451 
811 4 5.99379 10.7341 17.123 
695 1 5.91985 8.74678 19.6946 
711 5 6.89649 9.10582 19.8728 
772 5 10.0073 8.13796 16.8712 
707 4 8.07456 7.48414 18.7391 
776 5 10.4682 7.92197 19.3834 
1057 3 9.57 11.1323 17.8338 
1061 4 10.088 10.7809 16.7709 
80 5 10.5172 10.4796 -0.282192 
1060 4 9.58578 10.4937 18.8508 
443 1 7.24211 14.4028 1.72757 
459 5 6.22723 14.0151 1.58424 
386 3 6.79754 13.2817 5.03841 
390 4 5.6762 13.7274 5.06692 
391 4 7.18691 12.4217 4.2988 
446 2 7.75053 15.0447 0.493773 
447 2 7.2972 15.3026 2.86305 
450 3 6.15276 16.0628 3.12823 
456 4 6.27829 17.0042 3.86955 
70 3 10.2015 12.0149 1.77381 
74 4 9.69549 12.3683 0.714204 
460 5 7.91659 13.5624 1.94807 
73 4 10.1875 12.6491 2.79299 
395 5 9.24451 12.6303 5.07871 
442 1 9.01852 15.7119 0.645209 
445 2 8.91389 16.612 1.78921 
457 5 9.74842 14.9628 0.824362 
444 1 8.54255 15.9879 3.04858 
461 5 9.3159 15.2582 3.27223 
462 5 8.49271 16.7233 3.83749 
383 2 7.75164 13.8903 5.8438 
384 2 7.30271 13.6325 8.21287 
387 3 6.14421 12.8767 8.48825 
393 4 6.28588 11.9351 9.22865 
380 1 7.25906 14.5389 7.07227 
396 5 6.22519 14.926 6.94204 
1121 3 6.79736 15.6582 10.394 
1125 4 5.6762 15.2137 10.432 
1126 4 7.18858 16.5168 9.64084 
379 1 9.0178 13.2211 5.99969 
382 2 8.91444 12.3174 7.13646 
394 5 9.76384 13.9655 6.18631 
381 1 8.55386 12.9528 8.39349 
398 5 9.32537 13.6846 8.66019 
399 5 8.48201 12.2513 9.21471 
397 5 7.92437 15.3943 7.28459 
427 3 10.1982 16.9252 7.12618 
431 4 9.69546 16.5627 6.06649 
430 4 10.182 16.2817 8.14992 
1130 5 9.23846 16.2724 10.4621 
1115 1 7.25288 14.3925 12.4345 
1131 5 6.21488 14.0278 12.2763 
1058 3 6.79651 13.2875 15.7446 
1062 4 5.66742 13.7261 15.777 
1063 4 7.19485 12.418 15.0031 
1118 2 7.73831 15.043 11.2081 
1119 2 7.30124 15.3033 13.5655 
1122 3 6.16071 16.0674 13.8425 
1128 4 6.2867 17.0062 14.5769 
742 3 10.2071 12.019 12.4811 
746 4 9.68957 12.3709 11.4179 
1132 5 7.90931 13.5637 12.6465 
745 4 10.19 12.6532 13.5052 
1067 5 9.26098 12.6806 15.8054 
1114 1 9.01766 15.7159 11.3513 
1117 2 8.90971 16.6167 12.4939 
1129 5 9.77983 14.9984 11.5479 
1116 1 8.54882 15.9838 13.7588 
1133 5 9.28375 15.2599 14.0064 
1134 5 8.49339 16.7036 14.5646 
1055 2 7.74237 13.8915 16.5639 
1056 2 7.29811 13.6333 18.9212 
1059 3 6.15792 12.871 19.1925 
1065 4 6.27519 11.9293 19.9299 
1052 1 7.2472 14.5288 17.7886 
1068 5 6.22033 14.8878 17.6566 
449 3 6.78985 15.6513 -0.311862 
453 4 5.67676 15.208 -0.285009 
454 4 7.1942 16.5171 -1.05509 
1051 1 9.01956 13.2216 16.712 
1054 2 8.90889 12.3177 17.8411 
1066 5 9.74823 13.957 16.8539 
1053 1 8.55128 12.9488 19.1084 
1070 5 9.29928 13.6943 19.3891 
1071 5 8.48702 12.2332 19.9101 
1069 5 7.93203 15.3372 18.008 
1099 3 10.2086 16.9232 17.8304 
1103 4 9.68784 16.5624 16.7695 
458 5 9.23196 16.3033 -0.281661 
1102 4 10.1802 16.2867 18.8638 
1037 3 6.39005 19.0705 21.7358 
1041 4 7.50327 19.5147 21.6927 
1042 4 5.9928 18.1915 22.4771 
464 1 5.93448 20.1828 3.63015 
480 5 6.93271 19.8167 3.80831 
468 2 5.88051 21.0944 2.49368 
471 3 7.03895 21.8472 2.23206 
477 4 6.89503 22.7945 1.48671 
467 2 5.43613 20.8308 4.85879 
448 3 9.57363 17.8024 1.77132 
452 4 10.0821 18.1523 0.702209 
437 5 10.5251 18.4385 5.09613 
451 4 9.59446 18.4322 2.80308 
415 5 10.0273 20.7703 0.801765 
419 5 10.4749 21.0041 3.30467 
476 4 8.07001 21.4556 2.68149 
481 5 5.27812 19.3831 3.41202 
363 2 5.88536 19.4229 7.84592 
366 3 7.03351 18.6624 7.57545 
372 4 6.8974 17.7248 6.84743 
362 2 5.43211 19.6825 10.2203 
470 3 6.38831 21.4381 5.6697 
474 4 7.50139 21.0026 5.62942 
475 4 5.99333 22.3059 6.41372 
359 1 5.92186 20.324 8.99013 
375 5 6.91604 20.6814 9.16813 
436 5 10.0197 19.7458 6.16444 
371 4 8.07271 19.0615 8.04065 
440 5 10.4709 19.5176 8.64761 
49 3 9.57085 -0.442533 7.13096 
53 4 10.0846 -0.799364 6.06102 
52 4 9.57597 -1.08702 8.15711 
1088 5 10.5115 22.0816 10.4352 
365 3 6.38467 19.0692 11.0222 
369 4 7.50268 19.5062 10.993 
370 4 5.98862 18.2064 11.7642 
1136 1 5.92941 20.185 14.338 
1152 5 6.90267 19.7902 14.5124 
1140 2 5.88554 21.0893 13.2047 
1143 3 7.02374 21.8449 12.9338 
1149 4 6.90577 22.7928 12.1962 
1139 2 5.43432 20.8297 15.5674 
1120 3 9.56575 17.8005 12.4733 
1124 4 10.0831 18.1589 11.4214 
1148 4 8.06801 21.4504 13.3961 
1123 4 9.58398 18.4379 13.4966 
1087 5 10.0168 20.7678 11.5595 
1091 5 10.4933 21.0116 14.0179 
1035 2 5.88972 19.424 18.5634 
1038 3 7.02686 18.6572 18.2888 
1044 4 6.91482 17.7228 17.5457 
1034 2 5.43379 19.6856 20.9264 
1142 3 6.38951 21.4394 16.3802 
1146 4 7.50346 21.004 16.3383 
1147 4 5.98917 22.311 17.119 
1031 1 5.93 20.3277 19.6918 
1047 5 6.95503 20.6971 19.8604 
1108 5 10.0209 19.7653 16.8894 
1043 4 8.06385 19.0552 18.7496 
1112 5 10.4897 19.4817 19.3368 
721 3 9.57164 -0.437446 17.8364 
725 4 10.0803 -0.800467 16.7778 
724 4 9.58996 -1.08 18.8609 
416 5 10.536 22.0576 -0.27084 
995 3 13.3815 1.7067 21.7238 
1000 4 13.7819 0.838968 22.4819 
170 1 13.8446 2.82123 3.63681 
187 5 14.5449 1.99732 3.39625 
171 1 15.148 4.41481 2.30871 
174 2 13.8872 3.73302 2.49444 
189 5 15.0786 5.1281 1.50232 
169 1 15.6086 4.1502 4.70898 
172 2 15.5068 5.04793 3.56197 
173 2 14.333 3.46205 4.85428 
999 4 12.2698 2.14582 21.7034 
186 5 12.8651 2.45704 3.76545 
177 3 12.7502 4.48665 2.22691 
183 4 12.8719 5.43147 1.4968 
182 4 11.6977 4.08941 2.68105 
318 1 15.1348 1.37542 7.6782 
321 2 13.8853 2.05028 7.8471 
336 5 15.0922 0.649315 6.88157 
316 1 15.6137 1.64536 10.061 
319 2 15.508 0.730105 8.92125 
320 2 14.3358 2.31658 10.2213 
176 3 13.3892 4.08544 5.66894 
181 4 13.7837 4.94302 6.41542 
317 1 13.8377 2.97294 8.99269 
334 5 14.5227 3.75667 8.78165 
324 3 12.7332 1.30446 7.58766 
330 4 12.8724 0.359175 6.84786 
329 4 11.7057 1.69425 8.03917 
180 4 12.2638 3.63025 5.63157 
333 5 12.8389 3.31765 9.1594 
323 3 13.3903 1.70682 11.0201 
328 4 13.7901 0.84031 11.7724 
842 1 13.8489 2.81942 14.3421 
859 5 14.5104 1.9904 14.1225 
843 1 15.1481 4.41628 13.0224 
846 2 13.895 3.73732 13.2023 
861 5 15.0633 5.15281 12.2275 
841 1 15.6047 4.13963 15.4214 
844 2 15.4955 5.04549 14.2643 
845 2 14.3397 3.47482 15.575 
327 4 12.271 2.15196 10.9886 
858 5 12.8487 2.44192 14.4713 
849 3 12.7459 4.48699 12.9307 
855 4 12.8757 5.42984 12.1923 
854 4 11.7021 4.09026 13.3889 
990 1 15.1487 1.37863 18.3711 
993 2 13.8952 2.06001 18.5494 
1008 5 15.079 0.646923 17.5724 
988 1 15.6066 1.64632 20.7704 
991 2 15.5082 0.737392 19.6272 
992 2 14.3319 2.31809 20.9197 
848 3 13.3888 4.07756 16.3832 
853 4 13.7713 4.94872 17.1243 
989 1 13.8497 2.9736 19.7064 
1006 5 14.5189 3.78965 19.4632 
996 3 12.744 1.30073 18.284 
1002 4 12.8732 0.359334 17.5481 
1001 4 11.7047 1.69658 18.7434 
852 4 12.2643 3.62957 16.3447 
1005 5 12.8404 3.3456 19.8625 
857 5 15.8145 4.70045 16.2909 
81 5 13.5286 8.24602 1.57211 
96 4 14.1018 7.93732 5.06969 
77 4 14.6624 9.8789 2.6704 
72 3 13.6196 10.2651 3.12951 
78 4 13.4952 11.2129 3.86837 
65 1 12.5126 8.60876 1.7142 
82 5 11.8666 7.80464 1.94736 
92 3 12.9804 7.48223 5.04023 
97 4 12.5867 6.63107 4.29195 
64 1 10.7595 9.93415 0.641135 
67 2 10.8699 10.8313 1.79777 
68 2 12.0268 9.25953 0.500034 
66 1 11.2224 10.1999 3.05137 
69 2 12.4687 9.51239 2.85919 
84 5 11.2846 10.8858 3.85373 
98 4 14.6615 7.48464 8.02526 
93 3 13.6158 7.08873 8.48291 
99 4 13.4887 6.14657 9.21739 
102 5 13.5222 9.10229 6.94481 
747 4 14.0883 9.4223 10.4347 
85 1 10.7591 7.42472 6.0001 
88 2 10.8512 6.52671 7.13751 
89 2 12.0307 8.10936 5.85398 
87 1 11.2238 7.16501 8.3893 
90 2 12.4742 7.85453 8.20675 
105 5 11.3045 6.46268 9.20048 
86 1 12.5179 8.75016 7.07827 
103 5 11.816 9.57253 7.31631 
743 3 12.9814 9.86824 10.3924 
748 4 12.5813 10.7328 9.64052 
753 5 13.529 8.25429 12.2629 
768 4 14.1028 7.93754 15.7807 
749 4 14.663 9.87629 13.3727 
744 3 13.6245 10.2697 13.837 
750 4 13.4987 11.2119 14.575 
737 1 12.5146 8.6156 12.4291 
754 5 11.8364 7.78572 12.6413 
764 3 12.9813 7.49323 15.7513 
769 4 12.5847 6.63275 15.0093 
736 1 10.7552 9.93285 11.353 
739 2 10.8656 10.8286 12.4914 
740 2 12.0263 9.253 11.2122 
738 1 11.2149 10.2048 13.7487 
741 2 12.4786 9.51361 13.5713 
756 5 11.2889 10.9222 14.5686 
770 4 14.6648 7.4823 18.7351 
765 3 13.6163 7.08511 19.1932 
771 4 13.4935 6.14399 19.9327 
774 5 13.5402 9.1171 17.6577 
75 4 14.0974 9.41925 -0.281586 
757 1 10.7635 7.42404 16.7058 
760 2 10.8629 6.5206 17.8478 
761 2 12.0238 8.10724 16.5561 
759 1 11.2269 7.16159 19.095 
762 2 12.4728 7.84512 18.917 
777 5 11.2833 6.43452 19.9177 
758 1 12.5222 8.75291 17.781 
775 5 11.8532 9.6076 18.0011 
71 3 12.9755 9.87219 -0.320054 
76 4 12.5854 10.7313 -1.05907 
1331 3 13.3884 13.277 21.7288 
1336 4 13.7856 12.4131 22.4841 
506 1 13.8476 14.3969 3.63899 
523 5 14.5581 13.5816 3.4114 
507 1 15.1395 15.9889 2.31037 
510 2 13.8861 15.3049 2.49405 
525 5 15.0729 16.6971 1.50845 
505 1 15.6021 15.711 4.71083 
508 2 15.5028 16.6162 3.56492 
509 2 14.341 15.0455 4.85411 
1335 4 12.2668 13.7198 21.6997 
522 5 12.8415 14.0277 3.80966 
513 3 12.7421 16.06 2.22581 
519 4 12.8648 17.007 1.48549 
518 4 11.7017 15.6589 2.68375 
1340 5 15.8165 12.6769 21.6817 
654 1 15.1471 12.9538 7.67358 
657 2 13.8899 13.6355 7.84067 
672 5 15.067 12.2357 6.86248 
652 1 15.6041 13.2198 10.0699 
655 2 15.4998 12.3083 8.91759 
656 2 14.335 13.8921 10.2056 
512 3 13.3891 15.6549 5.67665 
517 4 13.7846 16.5137 6.41363 
653 1 13.843 14.5319 8.98708 
670 5 14.5173 15.3901 8.76584 
660 3 12.745 12.8805 7.56973 
666 4 12.8706 11.9252 6.84314 
665 4 11.7024 13.2681 8.03696 
516 4 12.2678 15.2081 5.63207 
669 5 12.8377 14.9255 9.16007 
659 3 13.3911 13.2835 11.0218 
664 4 13.7812 12.4185 11.7753 
1178 1 13.8435 14.3972 14.3478 
1195 5 14.5267 13.5731 14.1187 
1179 1 15.138 15.987 13.0254 
1182 2 13.892 15.3042 13.2047 
1197 5 15.0456 16.7034 12.248 
1177 1 15.6016 15.7244 15.4239 
1180 2 15.5013 16.6239 14.2775 
1181 2 14.3478 15.035 15.5697 
663 4 12.2695 13.7277 10.9891 
1194 5 12.8324 14.0131 14.5072 
1185 3 12.7452 16.0606 12.941 
1191 4 12.8781 17.0042 12.1948 
1190 4 11.701 15.6682 13.3891 
1326 1 15.1361 12.9499 18.3862 
1329 2 13.884 13.6328 18.5576 
1344 5 15.0736 12.2377 17.568 
1324 1 15.6052 13.2102 20.7722 
1327 2 15.5053 12.3138 19.6245 
1328 2 14.3365 13.8975 20.9236 
1184 3 13.3871 15.6551 16.3746 
1189 4 13.7819 16.5137 17.129 
1325 1 13.8393 14.5379 19.69 
1342 5 14.5373 15.3458 19.4596 
1332 3 12.7386 12.8736 18.2841 
1338 4 12.8717 11.9313 17.5506 
1337 4 11.7016 13.2768 18.7462 
1188 4 12.2687 15.2104 16.3432 
1341 5 12.8421 14.9034 19.8626 
417 5 13.535 19.799 1.54949 
432 4 14.0916 19.5127 5.07234 
413 4 14.6594 21.4559 2.67473 
408 3 13.6169 21.8464 3.13139 
414 4 13.497 22.794 3.86668 
401 1 12.5179 20.1827 1.71764 
418 5 11.8396 19.3833 1.97059 
428 3 12.9796 19.065 5.04306 
433 4 12.5767 18.2053 4.29439 
400 1 10.7564 21.5069 0.643851 
403 2 10.8523 22.4033 1.79094 
404 2 12.0276 20.8325 0.49942 
402 1 11.2194 21.7703 3.04121 
405 2 12.4744 21.0901 2.86565 
420 5 11.2745 22.4834 3.84447 
434 4 14.6603 19.0607 8.01951 
429 3 13.6215 18.6698 8.49063 
435 4 13.4929 17.7139 9.21581 
438 5 13.536 20.6872 6.91371 
1083 4 14.0991 20.9993 10.4269 
421 1 10.7592 19.0071 5.99398 
424 2 10.8611 18.1073 7.14389 
425 2 12.0313 19.6859 5.84746 
423 1 11.2273 18.737 8.39269 
426 2 12.4739 19.4162 8.21615 
441 5 11.2983 18.0082 9.23296 
422 1 12.5206 20.3178 7.06885 
439 5 11.8173 21.1648 7.288 
1079 3 12.9794 21.4396 10.3995 
1084 4 12.5831 22.3056 9.6491 
1089 5 13.5483 19.8191 12.2735 
1104 4 14.0932 19.5148 15.7773 
1085 4 14.6641 21.4584 13.3832 
1080 3 13.6184 21.8477 13.8352 
1086 4 13.4925 22.7857 14.5782 
1073 1 12.512 20.1868 12.4258 
1090 5 11.8459 19.3725 12.6212 
1100 3 12.9712 19.0709 15.7505 
1105 4 12.5821 18.2002 15.0066 
1072 1 10.7618 21.5082 11.3511 
1075 2 10.8633 22.4044 12.4987 
1076 2 12.0221 20.8272 11.2069 
1074 1 11.2197 21.7764 13.7559 
1077 2 12.4719 21.096 13.5614 
1092 5 11.2922 22.4909 14.5933 
1109 5 10.5459 18.4404 15.7806 
1106 4 14.6596 19.0559 18.7395 
1101 3 13.6151 18.6665 19.1952 
1107 4 13.4986 17.7195 19.9315 
1110 5 13.5005 20.7041 17.6246 
411 4 14.1004 20.9919 -0.276894 
1093 1 10.7625 19.01 16.7024 
1096 2 10.8591 18.1032 17.8465 
1097 2 12.0229 19.6851 16.5574 
1095 1 11.2182 18.7279 19.1015 
1098 2 12.4709 19.4183 18.9156 
1113 5 11.2844 18.0112 19.9051 
1094 1 12.5207 20.3161 17.7749 
1111 5 11.8321 21.1485 18.0234 
407 3 12.9825 21.4383 -0.317455 
412 4 12.5851 22.306 -1.06172 
1004 5 15.8258 1.05751 21.6451 
640 4 16.7741 24.2253 2.56038 
637 3 16.7926 23.5902 3.58374 
641 4 16.2799 23.9427 4.64223 
188 5 15.891 3.64097 2.04206 
287 4 18.2922 4.09 2.67749 
184 5 16.3847 3.38689 4.48448 
275 1 20.4371 2.81926 1.72292 
291 5 19.4386 2.45303 1.56378 
218 3 19.9803 1.70876 5.04321 
222 4 18.8639 2.14763 5.07804 
223 4 20.3743 0.841051 4.29099 
278 2 20.9328 3.46253 0.491105 
279 2 20.4865 3.72523 2.85826 
282 3 19.3331 4.48745 3.13237 
288 4 19.4647 5.4279 3.86845 
224 4 18.2961 1.68896 8.02992 
335 5 15.8767 2.11753 7.42925 
331 5 16.3482 2.38721 9.87531 
185 5 15.841 4.72488 5.60551 
199 4 16.7763 4.71116 7.91172 
196 3 16.793 5.34894 8.94071 
200 4 16.2838 4.99006 10.0058 
215 2 20.9283 2.32815 5.84924 
216 2 20.4828 2.05939 8.21623 
219 3 19.3291 1.30155 8.47677 
225 4 19.46 0.351285 9.21301 
212 1 20.435 2.96129 7.065 
228 5 19.4507 3.36099 6.89941 
953 3 19.9796 4.07314 10.402 
957 4 18.8576 3.63703 10.4312 
958 4 20.374 4.94429 9.64429 
229 5 21.0796 3.78112 7.30678 
332 5 15.831 1.08081 10.9777 
1312 4 16.7776 24.2218 13.2593 
1309 3 16.7946 23.5849 14.2905 
1313 4 16.2896 23.946 15.3519 
860 5 15.8887 3.67942 12.7248 
959 4 18.294 4.08948 13.385 
856 5 16.3524 3.38699 15.214 
947 1 20.4431 2.82376 12.4252 
963 5 19.4299 2.44906 12.2714 
890 3 19.9803 1.70786 15.7497 
894 4 18.8581 2.15517 15.7821 
895 4 20.3698 0.838744 15.0004 
950 2 20.9291 3.4707 11.1987 
951 2 20.4739 3.72638 13.56 
954 3 19.3331 4.48657 13.8412 
960 4 19.4592 5.4308 14.5841 
896 4 18.3036 1.69079 18.7323 
1007 5 15.9064 2.10518 18.1003 
1003 5 16.3364 2.36891 20.5725 
286 4 20.3702 4.95273 -1.06441 
871 4 16.7745 4.71052 18.6106 
868 3 16.7903 5.34423 19.6466 
872 4 16.2827 4.99244 20.7051 
887 2 20.9316 2.32337 16.5651 
888 2 20.4816 2.05564 18.9201 
891 3 19.3324 1.3056 19.1949 
897 4 19.4586 0.355979 19.924 
884 1 20.4347 2.96464 17.7842 
900 5 19.4385 3.32479 17.6226 
281 3 19.9732 4.07342 -0.310025 
285 4 18.8619 3.64272 -0.27935 
178 4 16.1751 6.86766 2.55138 
878 5 17.108 6.87237 21.6757 
175 3 16.1654 6.22396 3.59121 
179 4 16.6754 6.5831 4.6488 
313 5 18.4388 7.78288 3.4153 
297 1 17.8165 10.201 2.30933 
314 5 17.0611 9.4571 2.05536 
315 5 17.8671 10.9161 1.50965 
295 1 17.3501 9.92722 4.71458 
298 2 17.445 10.8359 3.56825 
310 5 16.6182 9.19491 4.53005 
869 3 19.5612 7.48573 21.7304 
873 4 20.6903 7.93617 21.7002 
874 4 19.1732 6.63054 22.4786 
296 1 19.1115 8.61584 3.62706 
312 5 20.1181 8.22148 3.80829 
300 2 19.0699 9.51981 2.5004 
303 3 20.211 10.2644 2.22901 
309 4 20.0891 11.2188 1.48698 
299 2 18.6156 9.25822 4.85567 
192 1 17.8186 7.16259 7.67155 
209 5 17.0732 7.90165 7.39109 
210 5 17.8717 6.41755 6.88823 
190 1 17.3541 7.43046 10.0661 
193 2 17.4449 6.52577 8.91914 
205 5 16.6066 8.18697 9.89497 
311 5 17.1389 10.5131 5.62194 
661 4 16.1763 10.4939 7.908 
208 5 18.4343 9.57941 8.7678 
658 3 16.1596 11.1336 8.94875 
662 4 16.6715 10.7826 9.98768 
195 2 19.0603 7.84634 7.84478 
198 3 20.2087 7.09235 7.58013 
204 4 20.0784 6.13886 6.84226 
194 2 18.6239 8.10657 10.2156 
302 3 19.5708 9.86841 5.66703 
306 4 20.6849 9.42382 5.6342 
307 4 19.1714 10.7344 6.41724 
191 1 19.1064 8.7459 8.98593 
207 5 20.1328 9.13516 9.11994 
206 5 17.0964 6.88351 10.984 
850 4 16.1813 6.86437 13.2716 
847 3 16.158 6.23234 14.2906 
851 4 16.6832 6.57547 15.352 
985 5 18.4357 7.80463 14.1117 
969 1 17.8122 10.1912 13.0229 
986 5 17.1002 9.48303 12.766 
987 5 17.847 10.9185 12.2214 
967 1 17.3468 9.92403 15.421 
970 2 17.4497 10.8369 14.265 
982 5 16.5986 9.19434 15.2231 
197 3 19.573 7.49655 11.0196 
201 4 20.6864 7.93736 10.9903 
202 4 19.1754 6.62693 11.77 
968 1 19.1137 8.61814 14.3347 
984 5 20.1255 8.22326 14.4853 
972 2 19.0663 9.51675 13.1993 
975 3 20.2121 10.2671 12.9461 
981 4 20.0908 11.2256 12.1916 
971 2 18.6172 9.25726 15.5629 
864 1 17.8121 7.15483 18.3785 
881 5 17.0858 7.90018 18.1124 
882 5 17.8568 6.44547 17.563 
862 1 17.3505 7.43876 20.7636 
865 2 17.4479 6.53226 19.633 
877 5 16.6013 8.1668 20.5979 
983 5 17.1093 10.4977 16.3187 
1333 4 16.1741 10.4964 18.6113 
880 5 18.4325 9.56147 19.4933 
1330 3 16.1593 11.134 19.6421 
1334 4 16.6776 10.7766 20.7127 
867 2 19.0679 7.85059 18.5577 
870 3 20.2155 7.08908 18.2943 
876 4 20.0849 6.13882 17.558 
866 2 18.6126 8.10336 20.9186 
974 3 19.5717 9.86424 16.3786 
978 4 20.687 9.42777 16.3458 
979 4 19.1721 10.7291 17.1189 
863 1 19.1062 8.75198 19.7043 
879 5 20.1159 9.15225 19.8638 
304 4 16.7795 12.6536 2.56344 
624 4 19.4661 17.0059 3.86821 
301 3 16.7965 12.0155 3.58169 
305 4 16.2822 12.3714 4.64247 
524 5 15.8831 15.2345 2.04242 
623 4 18.2896 15.6556 2.67506 
520 5 16.3595 14.9932 4.49252 
611 1 20.4316 14.4013 1.71878 
627 5 19.426 14.0162 1.5611 
554 3 19.9744 13.2803 5.04108 
558 4 18.8558 13.7212 5.07198 
559 4 20.3656 12.417 4.29369 
614 2 20.9218 15.0443 0.491109 
615 2 20.4829 15.3026 2.86249 
618 3 19.3349 16.0625 3.1296 
560 4 18.2911 13.2677 8.02542 
671 5 15.8858 13.7272 7.40082 
667 5 16.3807 13.9559 9.87584 
521 5 15.855 16.2691 5.61014 
535 4 16.7804 16.2775 7.90826 
532 3 16.7943 16.921 8.93328 