#xyz2data.m LAMMPS file aRDX basis type b1-1x1x1             

    168 atoms
    168 bonds
    288 angles
    528 dihedrals
    48 impropers

   5 atom types
   4 bond types
   7 angle types
   7 dihedral types
   2 improper types

   0.00000  13.18200  xlo xhi
   0.00000  11.57400  ylo yhi
  -0.00000  10.70900  zlo zhi
   0.00000   0.00000   0.00000  xy xz yz

#    0.0 500.0 xlo xhi
#    0.0 500.0 ylo yhi
#    0.0 500.0 zlo zhi
#    0.0 0.0 0.0 xy xz yz

Masses

1 12.011000
2 14.007200
3 14.007200
4 15.999430
5 1.0080000

Atoms

       1       1       1   -0.540000    2.42420000    4.14120000    4.71200000
       2       1       1   -0.540000    0.66310000    2.82410000    3.63570000
       3       1       1   -0.540000    1.96020000    4.41320000    2.31210000
       4       1       2    0.056375    2.32140000    5.04630000    3.56610000
       5       1       2    0.056375    1.15610000    3.46760000    4.85870000
       6       1       2    0.056375    0.70660000    3.72910000    2.49410000
       7       1       3    0.860625    2.97910000    6.22570000    3.58320000
       8       1       3    0.860625    0.20430000    4.07980000    5.66930000
       9       1       3    0.860625   -0.43900000    4.48490000    2.22530000
      10       1       4   -0.458500    2.99230000    6.86570000    2.55730000
      11       1       4   -0.458500    3.49190000    6.58210000    4.64560000
      12       1       4   -0.458500   -0.91350000    3.63660000    5.63510000
      13       1       4   -0.458500    0.59850000    4.94330000    6.41470000
      14       1       4   -0.458500   -1.47770000    4.09030000    2.68150000
      15       1       4   -0.458500   -0.31110000    5.42940000    1.48860000
      16       1       5    0.270000    3.16500000    3.40740000    4.52560000
      17       1       5    0.270000    2.65350000    4.70830000    5.61580000
      18       1       5    0.270000   -0.34410000    2.45020000    3.79100000
      19       1       5    0.270000    1.33800000    2.00000000    3.41830000
      20       1       5    0.270000    2.70490000    3.66430000    2.05290000
      21       1       5    0.270000    1.89820000    5.12960000    1.51320000
      22       2       1   -0.540000    4.16680000    7.43280000   10.06650000
      23       2       1   -0.540000    5.92790000    8.74990000    8.99020000
      24       2       1   -0.540000    4.63080000    7.16080000    7.66660000
      25       2       2    0.056375    4.26960000    6.52770000    8.92060000
      26       2       2    0.056375    5.43490000    8.10640000   10.21320000
      27       2       2    0.056375    5.88440000    7.84490000    7.84860000
      28       2       3    0.860625    3.61190000    5.34830000    8.93770000
      29       2       3    0.860625    6.38670000    7.49420000   11.02380000
      30       2       3    0.860625    7.03000000    7.08910000    7.57980000
      31       2       4   -0.458500    3.59870000    4.70830000    7.91180000
      32       2       4   -0.458500    3.09910000    4.99190000   10.00010000
      33       2       4   -0.458500    7.50450000    7.93740000   10.98960000
      34       2       4   -0.458500    5.99250000    6.63070000   11.76920000
      35       2       4   -0.458500    8.06870000    7.48370000    8.03600000
      36       2       4   -0.458500    6.90210000    6.14460000    6.84310000
      37       2       5    0.270000    3.42600000    8.16660000    9.88010000
      38       2       5    0.270000    3.93750000    6.86570000   10.97030000
      39       2       5    0.270000    6.93510000    9.12380000    9.14550000
      40       2       5    0.270000    5.25300000    9.57400000    8.77280000
      41       2       5    0.270000    3.88610000    7.90970000    7.40740000
      42       2       5    0.270000    4.69280000    6.44440000    6.86770000
      43       3       1   -0.540000    9.01520000    1.64580000    5.99700000
      44       3       1   -0.540000    7.25410000    2.96290000    7.07330000
      45       3       1   -0.540000    8.55120000    1.37380000    8.39690000
      46       3       2    0.056375    8.91240000    0.74070000    7.14290000
      47       3       2    0.056375    7.74710000    2.31940000    5.85030000
      48       3       2    0.056375    7.29760000    2.05790000    8.21490000
      49       3       3    0.860625    9.57010000   -0.43870000    7.12580000
      50       3       3    0.860625    6.79530000    1.70720000    5.03970000
      51       3       3    0.860625    6.15200000    1.30210000    8.48370000
      52       3       4   -0.458500    9.58330000   -1.07870000    8.15170000
      53       3       4   -0.458500   10.08290000   -0.79510000    6.06340000
      54       3       4   -0.458500    5.67750000    2.15040000    5.07390000
      55       3       4   -0.458500    7.18950000    0.84370000    4.29430000
      56       3       4   -0.458500    5.11330000    1.69670000    8.02750000
      57       3       4   -0.458500    6.27990000    0.35760000    9.22040000
      58       3       5    0.270000    9.75600000    2.37960000    6.18340000
      59       3       5    0.270000    9.24450000    1.07870000    5.09320000
      60       3       5    0.270000    6.24690000    3.33680000    6.91800000
      61       3       5    0.270000    7.92900000    3.78700000    7.29070000
      62       3       5    0.270000    9.29590000    2.12270000    8.65610000
      63       3       5    0.270000    8.48920000    0.65740000    9.19580000
      64       4       1   -0.540000   10.75780000    9.92820000    0.64250000
      65       4       1   -0.540000   12.51890000    8.61110000    1.71880000
      66       4       1   -0.540000   11.22180000   10.20020000    3.04240000
      67       4       2    0.056375   10.86060000   10.83330000    1.78840000
      68       4       2    0.056375   12.02590000    9.25460000    0.49580000
      69       4       2    0.056375   12.47540000    9.51610000    2.86040000
      70       4       3    0.860625   10.20290000   12.01270000    1.77130000
      71       4       3    0.860625   12.97770000    9.86680000   -0.31480000
      72       4       3    0.860625   13.62100000   10.27190000    3.12920000
      73       4       4   -0.458500   10.18970000   12.65270000    2.79720000
      74       4       4   -0.458500    9.69010000   12.36910000    0.70890000
      75       4       4   -0.458500   14.09550000    9.42360000   -0.28060000
      76       4       4   -0.458500   12.58350000   10.73030000   -1.06020000
      77       4       4   -0.458500   14.65970000    9.87730000    2.67300000
      78       4       4   -0.458500   13.49310000   11.21640000    3.86590000
      79       4       5    0.270000   10.01700000    9.19440000    0.82890000
      80       4       5    0.270000   10.52850000   10.49530000   -0.26130000
      81       4       5    0.270000   13.52610000    8.23720000    1.56350000
      82       4       5    0.270000   11.84400000    7.78700000    1.93620000
      83       4       5    0.270000   10.47710000    9.45130000    3.30160000
      84       4       5    0.270000   11.28380000   10.91660000    3.84130000
      85       5       1   -0.540000   10.75780000    7.43280000    5.99700000
      86       5       1   -0.540000   12.51890000    8.74990000    7.07330000
      87       5       1   -0.540000   11.22180000    7.16080000    8.39690000
      88       5       2    0.056375   10.86060000    6.52770000    7.14290000
      89       5       2    0.056375   12.02590000    8.10640000    5.85030000
      90       5       2    0.056375   12.47540000    7.84490000    8.21490000
      91       5       3    0.860625   10.20290000    5.34830000    7.12580000
      92       5       3    0.860625   12.97770000    7.49420000    5.03970000
      93       5       3    0.860625   13.62100000    7.08910000    8.48370000
      94       5       4   -0.458500   10.18970000    4.70830000    8.15170000
      95       5       4   -0.458500    9.69010000    4.99190000    6.06340000
      96       5       4   -0.458500   14.09550000    7.93740000    5.07390000
      97       5       4   -0.458500   12.58350000    6.63070000    4.29430000
      98       5       4   -0.458500   14.65970000    7.48370000    8.02750000
      99       5       4   -0.458500   13.49310000    6.14460000    9.22040000
     100       5       5    0.270000   10.01700000    8.16660000    6.18340000
     101       5       5    0.270000   10.52850000    6.86570000    5.09320000
     102       5       5    0.270000   13.52610000    9.12380000    6.91800000
     103       5       5    0.270000   11.84400000    9.57400000    7.29070000
     104       5       5    0.270000   10.47710000    7.90970000    8.65610000
     105       5       5    0.270000   11.28380000    6.44440000    9.19580000
     106       6       1   -0.540000    9.01520000    4.14120000    0.64250000
     107       6       1   -0.540000    7.25410000    2.82410000    1.71880000
     108       6       1   -0.540000    8.55120000    4.41320000    3.04240000
     109       6       2    0.056375    8.91240000    5.04630000    1.78840000
     110       6       2    0.056375    7.74710000    3.46760000    0.49580000
     111       6       2    0.056375    7.29760000    3.72910000    2.86040000
     112       6       3    0.860625    9.57010000    6.22570000    1.77130000
     113       6       3    0.860625    6.79530000    4.07980000   -0.31480000
     114       6       3    0.860625    6.15200000    4.48490000    3.12920000
     115       6       4   -0.458500    9.58330000    6.86570000    2.79720000
     116       6       4   -0.458500   10.08290000    6.58210000    0.70890000
     117       6       4   -0.458500    5.67750000    3.63660000   -0.28060000
     118       6       4   -0.458500    7.18950000    4.94330000   -1.06020000
     119       6       4   -0.458500    5.11330000    4.09030000    2.67300000
     120       6       4   -0.458500    6.27990000    5.42940000    3.86590000
     121       6       5    0.270000    9.75600000    3.40740000    0.82890000
     122       6       5    0.270000    9.24450000    4.70830000   -0.26130000
     123       6       5    0.270000    6.24690000    2.45020000    1.56350000
     124       6       5    0.270000    7.92900000    2.00000000    1.93620000
     125       6       5    0.270000    9.29590000    3.66430000    3.30160000
     126       6       5    0.270000    8.48920000    5.12960000    3.84130000
     127       7       1   -0.540000    4.16680000    9.92820000    4.71200000
     128       7       1   -0.540000    5.92790000    8.61110000    3.63570000
     129       7       1   -0.540000    4.63080000   10.20020000    2.31210000
     130       7       2    0.056375    4.26960000   10.83330000    3.56610000
     131       7       2    0.056375    5.43490000    9.25460000    4.85870000
     132       7       2    0.056375    5.88440000    9.51610000    2.49410000
     133       7       3    0.860625    3.61190000   12.01270000    3.58320000
     134       7       3    0.860625    6.38670000    9.86680000    5.66930000
     135       7       3    0.860625    7.03000000   10.27190000    2.22530000
     136       7       4   -0.458500    3.59870000   12.65270000    2.55730000
     137       7       4   -0.458500    3.09910000   12.36910000    4.64560000
     138       7       4   -0.458500    7.50450000    9.42360000    5.63510000
     139       7       4   -0.458500    5.99250000   10.73030000    6.41470000
     140       7       4   -0.458500    8.06870000    9.87730000    2.68150000
     141       7       4   -0.458500    6.90210000   11.21640000    1.48860000
     142       7       5    0.270000    3.42600000    9.19440000    4.52560000
     143       7       5    0.270000    3.93750000   10.49530000    5.61580000
     144       7       5    0.270000    6.93510000    8.23720000    3.79100000
     145       7       5    0.270000    5.25300000    7.78700000    3.41830000
     146       7       5    0.270000    3.88610000    9.45130000    2.05290000
     147       7       5    0.270000    4.69280000   10.91660000    1.51320000
     148       8       1   -0.540000    2.42420000    1.64580000   10.06650000
     149       8       1   -0.540000    0.66310000    2.96290000    8.99020000
     150       8       1   -0.540000    1.96020000    1.37380000    7.66660000
     151       8       2    0.056375    2.32140000    0.74070000    8.92060000
     152       8       2    0.056375    1.15610000    2.31940000   10.21320000
     153       8       2    0.056375    0.70660000    2.05790000    7.84860000
     154       8       3    0.860625    2.97910000   -0.43870000    8.93770000
     155       8       3    0.860625    0.20430000    1.70720000   11.02380000
     156       8       3    0.860625   -0.43900000    1.30210000    7.57980000
     157       8       4   -0.458500    2.99230000   -1.07870000    7.91180000
     158       8       4   -0.458500    3.49190000   -0.79510000   10.00010000
     159       8       4   -0.458500   -0.91350000    2.15040000   10.98960000
     160       8       4   -0.458500    0.59850000    0.84370000   11.76920000
     161       8       4   -0.458500   -1.47770000    1.69670000    8.03600000
     162       8       4   -0.458500   -0.31110000    0.35760000    6.84310000
     163       8       5    0.270000    3.16500000    2.37960000    9.88010000
     164       8       5    0.270000    2.65350000    1.07870000   10.97030000
     165       8       5    0.270000   -0.34410000    3.33680000    9.14550000
     166       8       5    0.270000    1.33800000    3.78700000    8.77280000
     167       8       5    0.270000    2.70490000    2.12270000    7.40740000
     168       8       5    0.270000    1.89820000    0.65740000    6.86770000

Bonds

       1   1      12       8
       2   1      13       8
       3   1      14       9
       4   1      15       9
       5   1      10       7
       6   1      11       7
       7   2       4       7
       8   2       5       8
       9   2       6       9
      10   3       5       1
      11   3       5       2
      12   3       6       2
      13   3       6       3
      14   3       4       3
      15   3       4       1
      16   4      16       1
      17   4      17       1
      18   4      18       2
      19   4      19       2
      20   4      20       3
      21   4      21       3
      22   1      33      29
      23   1      34      29
      24   1      35      30
      25   1      36      30
      26   1      31      28
      27   1      32      28
      28   2      25      28
      29   2      26      29
      30   2      27      30
      31   3      26      22
      32   3      26      23
      33   3      27      23
      34   3      27      24
      35   3      25      24
      36   3      25      22
      37   4      37      22
      38   4      38      22
      39   4      39      23
      40   4      40      23
      41   4      41      24
      42   4      42      24
      43   1      54      50
      44   1      55      50
      45   1      56      51
      46   1      57      51
      47   1      52      49
      48   1      53      49
      49   2      46      49
      50   2      47      50
      51   2      48      51
      52   3      47      43
      53   3      47      44
      54   3      48      44
      55   3      48      45
      56   3      46      45
      57   3      46      43
      58   4      58      43
      59   4      59      43
      60   4      60      44
      61   4      61      44
      62   4      62      45
      63   4      63      45
      64   1      75      71
      65   1      76      71
      66   1      77      72
      67   1      78      72
      68   1      73      70
      69   1      74      70
      70   2      67      70
      71   2      68      71
      72   2      69      72
      73   3      68      64
      74   3      68      65
      75   3      69      65
      76   3      69      66
      77   3      67      66
      78   3      67      64
      79   4      79      64
      80   4      80      64
      81   4      81      65
      82   4      82      65
      83   4      83      66
      84   4      84      66
      85   1      96      92
      86   1      97      92
      87   1      98      93
      88   1      99      93
      89   1      94      91
      90   1      95      91
      91   2      88      91
      92   2      89      92
      93   2      90      93
      94   3      89      85
      95   3      89      86
      96   3      90      86
      97   3      90      87
      98   3      88      87
      99   3      88      85
     100   4     100      85
     101   4     101      85
     102   4     102      86
     103   4     103      86
     104   4     104      87
     105   4     105      87
     106   1     117     113
     107   1     118     113
     108   1     119     114
     109   1     120     114
     110   1     115     112
     111   1     116     112
     112   2     109     112
     113   2     110     113
     114   2     111     114
     115   3     110     106
     116   3     110     107
     117   3     111     107
     118   3     111     108
     119   3     109     108
     120   3     109     106
     121   4     121     106
     122   4     122     106
     123   4     123     107
     124   4     124     107
     125   4     125     108
     126   4     126     108
     127   1     138     134
     128   1     139     134
     129   1     140     135
     130   1     141     135
     131   1     136     133
     132   1     137     133
     133   2     130     133
     134   2     131     134
     135   2     132     135
     136   3     131     127
     137   3     131     128
     138   3     132     128
     139   3     132     129
     140   3     130     129
     141   3     130     127
     142   4     142     127
     143   4     143     127
     144   4     144     128
     145   4     145     128
     146   4     146     129
     147   4     147     129
     148   1     159     155
     149   1     160     155
     150   1     161     156
     151   1     162     156
     152   1     157     154
     153   1     158     154
     154   2     151     154
     155   2     152     155
     156   2     153     156
     157   3     152     148
     158   3     152     149
     159   3     153     149
     160   3     153     150
     161   3     151     150
     162   3     151     148
     163   4     163     148
     164   4     164     148
     165   4     165     149
     166   4     166     149
     167   4     167     150
     168   4     168     150

Angles

       1   1      12       8      13
       2   1      14       9      15
       3   1      11       7      10
       4   2      13       8       5
       5   2      12       8       5
       6   2      14       9       6
       7   2      15       9       6
       8   2      11       7       4
       9   2      10       7       4
      10   3       7       4       1
      11   3       7       4       3
      12   3       8       5       1
      13   3       8       5       2
      14   3       9       6       2
      15   3       9       6       3
      16   4       1       5       2
      17   4       2       6       3
      18   4       3       4       1
      19   5       4       1      16
      20   5       4       1      17
      21   5       5       1      16
      22   5       5       1      17
      23   5       5       2      18
      24   5       5       2      19
      25   5       6       2      18
      26   5       6       2      19
      27   5       6       3      20
      28   5       6       3      21
      29   5       4       3      20
      30   5       4       3      21
      31   6      17       1      16
      32   6      19       2      18
      33   6      20       3      21
      34   7       5       2       6
      35   7       6       3       4
      36   7       4       1       5
      37   1      33      29      34
      38   1      35      30      36
      39   1      32      28      31
      40   2      34      29      26
      41   2      33      29      26
      42   2      35      30      27
      43   2      36      30      27
      44   2      32      28      25
      45   2      31      28      25
      46   3      28      25      22
      47   3      28      25      24
      48   3      29      26      22
      49   3      29      26      23
      50   3      30      27      23
      51   3      30      27      24
      52   4      22      26      23
      53   4      23      27      24
      54   4      24      25      22
      55   5      25      22      37
      56   5      25      22      38
      57   5      26      22      37
      58   5      26      22      38
      59   5      26      23      39
      60   5      26      23      40
      61   5      27      23      39
      62   5      27      23      40
      63   5      27      24      41
      64   5      27      24      42
      65   5      25      24      41
      66   5      25      24      42
      67   6      38      22      37
      68   6      40      23      39
      69   6      41      24      42
      70   7      26      23      27
      71   7      27      24      25
      72   7      25      22      26
      73   1      54      50      55
      74   1      56      51      57
      75   1      53      49      52
      76   2      55      50      47
      77   2      54      50      47
      78   2      56      51      48
      79   2      57      51      48
      80   2      53      49      46
      81   2      52      49      46
      82   3      49      46      43
      83   3      49      46      45
      84   3      50      47      43
      85   3      50      47      44
      86   3      51      48      44
      87   3      51      48      45
      88   4      43      47      44
      89   4      44      48      45
      90   4      45      46      43
      91   5      46      43      58
      92   5      46      43      59
      93   5      47      43      58
      94   5      47      43      59
      95   5      47      44      60
      96   5      47      44      61
      97   5      48      44      60
      98   5      48      44      61
      99   5      48      45      62
     100   5      48      45      63
     101   5      46      45      62
     102   5      46      45      63
     103   6      59      43      58
     104   6      61      44      60
     105   6      62      45      63
     106   7      47      44      48
     107   7      48      45      46
     108   7      46      43      47
     109   1      75      71      76
     110   1      77      72      78
     111   1      74      70      73
     112   2      76      71      68
     113   2      75      71      68
     114   2      77      72      69
     115   2      78      72      69
     116   2      74      70      67
     117   2      73      70      67
     118   3      70      67      64
     119   3      70      67      66
     120   3      71      68      64
     121   3      71      68      65
     122   3      72      69      65
     123   3      72      69      66
     124   4      64      68      65
     125   4      65      69      66
     126   4      66      67      64
     127   5      67      64      79
     128   5      67      64      80
     129   5      68      64      79
     130   5      68      64      80
     131   5      68      65      81
     132   5      68      65      82
     133   5      69      65      81
     134   5      69      65      82
     135   5      69      66      83
     136   5      69      66      84
     137   5      67      66      83
     138   5      67      66      84
     139   6      80      64      79
     140   6      82      65      81
     141   6      83      66      84
     142   7      68      65      69
     143   7      69      66      67
     144   7      67      64      68
     145   1      96      92      97
     146   1      98      93      99
     147   1      95      91      94
     148   2      97      92      89
     149   2      96      92      89
     150   2      98      93      90
     151   2      99      93      90
     152   2      95      91      88
     153   2      94      91      88
     154   3      91      88      85
     155   3      91      88      87
     156   3      92      89      85
     157   3      92      89      86
     158   3      93      90      86
     159   3      93      90      87
     160   4      85      89      86
     161   4      86      90      87
     162   4      87      88      85
     163   5      88      85     100
     164   5      88      85     101
     165   5      89      85     100
     166   5      89      85     101
     167   5      89      86     102
     168   5      89      86     103
     169   5      90      86     102
     170   5      90      86     103
     171   5      90      87     104
     172   5      90      87     105
     173   5      88      87     104
     174   5      88      87     105
     175   6     101      85     100
     176   6     103      86     102
     177   6     104      87     105
     178   7      89      86      90
     179   7      90      87      88
     180   7      88      85      89
     181   1     117     113     118
     182   1     119     114     120
     183   1     116     112     115
     184   2     118     113     110
     185   2     117     113     110
     186   2     119     114     111
     187   2     120     114     111
     188   2     116     112     109
     189   2     115     112     109
     190   3     112     109     106
     191   3     112     109     108
     192   3     113     110     106
     193   3     113     110     107
     194   3     114     111     107
     195   3     114     111     108
     196   4     106     110     107
     197   4     107     111     108
     198   4     108     109     106
     199   5     109     106     121
     200   5     109     106     122
     201   5     110     106     121
     202   5     110     106     122
     203   5     110     107     123
     204   5     110     107     124
     205   5     111     107     123
     206   5     111     107     124
     207   5     111     108     125
     208   5     111     108     126
     209   5     109     108     125
     210   5     109     108     126
     211   6     122     106     121
     212   6     124     107     123
     213   6     125     108     126
     214   7     110     107     111
     215   7     111     108     109
     216   7     109     106     110
     217   1     138     134     139
     218   1     140     135     141
     219   1     137     133     136
     220   2     139     134     131
     221   2     138     134     131
     222   2     140     135     132
     223   2     141     135     132
     224   2     137     133     130
     225   2     136     133     130
     226   3     133     130     127
     227   3     133     130     129
     228   3     134     131     127
     229   3     134     131     128
     230   3     135     132     128
     231   3     135     132     129
     232   4     127     131     128
     233   4     128     132     129
     234   4     129     130     127
     235   5     130     127     142
     236   5     130     127     143
     237   5     131     127     142
     238   5     131     127     143
     239   5     131     128     144
     240   5     131     128     145
     241   5     132     128     144
     242   5     132     128     145
     243   5     132     129     146
     244   5     132     129     147
     245   5     130     129     146
     246   5     130     129     147
     247   6     143     127     142
     248   6     145     128     144
     249   6     146     129     147
     250   7     131     128     132
     251   7     132     129     130
     252   7     130     127     131
     253   1     159     155     160
     254   1     161     156     162
     255   1     158     154     157
     256   2     160     155     152
     257   2     159     155     152
     258   2     161     156     153
     259   2     162     156     153
     260   2     158     154     151
     261   2     157     154     151
     262   3     154     151     148
     263   3     154     151     150
     264   3     155     152     148
     265   3     155     152     149
     266   3     156     153     149
     267   3     156     153     150
     268   4     148     152     149
     269   4     149     153     150
     270   4     150     151     148
     271   5     151     148     163
     272   5     151     148     164
     273   5     152     148     163
     274   5     152     148     164
     275   5     152     149     165
     276   5     152     149     166
     277   5     153     149     165
     278   5     153     149     166
     279   5     153     150     167
     280   5     153     150     168
     281   5     151     150     167
     282   5     151     150     168
     283   6     164     148     163
     284   6     166     149     165
     285   6     167     150     168
     286   7     152     149     153
     287   7     153     150     151
     288   7     151     148     152

Dihedrals

       1   1      12       8       5       1
       2   1      12       8       5       2
       3   1      13       8       5       2
       4   1      13       8       5       1
       5   1      14       9       6       3
       6   1      14       9       6       2
       7   1      15       9       6       2
       8   1      15       9       6       3
       9   1      10       7       4       1
      10   1      10       7       4       3
      11   1      11       7       4       3
      12   1      11       7       4       1
      13   2      12       8       5       1
      14   2      13       8       5       2