1344
Atoms. Timestep: 1
C 2.42749 4.1406 4.7209
C 0.67531H 2.82396 3.63885
C 1.9571H 4.40866 2.3068
N 2.31448 5.0478N 3.56323
N 1.1592N 3.4695H 4.85373
N 0.70911N 3.7322O 2.49486
N 2.9829O 6.2300C 3.59509
N 0.205226 4.0757 5.67336
N 25.919H 4.4859C 2.2251
O 2.989N 6.86647 2.55737
O 3.4942H 6.5710H 4.64271
O 25.448O 3.63237 5.63315
O 0.604186 4.93806 6.41552
O 24.880N 4.089C 2.67283
O 26.0487 5.4290N 1.48652
H 3.1662C 3.3672H 4.54213
H 2.63568 4.6981C 5.59023
H 26.012H 2.45319 3.80281
H 1.34948 1.9974O 3.42026
H 2.70176 3.6369H 2.0436
H 1.89286 5.13086 1.53574
C 4.1638O 7.4255N 10.0698
C 5.9312H 8.7451N 8.99813
C 4.63206 7.16106 7.6683
N 4.2769N 6.5321O 8.91877
N 5.43416 8.11429 10.2145
N 5.8891O 7.8508N 7.84945
N 3.60586 5.3457O 8.93498
N 6.3863O 7.4970N 11.0296
N 7.02749 7.0996 7.58306
O 3.59917 4.71347 7.9109
O 3.08827 4.9879N 10.0012
O 7.50166 7.9398O 10.9932
O 5.9921N 6.6259O 11.7703
O 8.06118 7.4843H 8.02914
O 6.8917O 6.149N 6.8529
H 3.39577 8.1766N 9.86982
H 3.9562H 6.88318 10.971
H 6.94979 9.12139 9.15289
H 5.2389 9.53896 8.76083
H 3.87786 7.9020N 7.42029
H 4.7162N 6.4594N 6.86558
C 9.01246 1.64848 6.00121
C 7.24998 2.965O 7.07967
C 8.5542O 1.3716N 8.3977
N 8.9115C 0.737368 7.14398
N 7.7498C 2.32596 5.84274
N 7.3015N 2.0603N 8.20924
N 9.5708H 22.705H 7.13096
N 6.7962N 1.7028H 5.04027
N 6.1538N 1.30338 8.47722
O 9.57597 22.06C 8.15711
O 10.0846 22.3486 6.06102
O 5.685C 2.14369 5.08003
O 7.1920N 0.84026C 4.29142
O 5.1155O 1.6990O 8.03016
O 6.2777C 0.35936N 9.22236
H 9.74949 2.3842N 6.18892
H 9.2514N 1.10078 5.10695
H 6.23008 3.3701N 6.89124
H 7.95528 3.7771O 7.31322
H 9.3047C 2.11876 8.65983
H 8.47746 0.65029H 9.19479
C 10.759H 9.9341H 0.641135
C 12.5126 8.60876 1.7142
C 11.222O 10.1999 3.05137
N 10.8699 10.831N 1.79777
N 12.0268 9.2595N 0.500034
N 12.4687 9.51239 2.85919
N 10.201H 12.0149 1.77381
N 12.975H 9.87219 21.0979
N 13.6196 10.265C 3.12951
O 10.187H 12.649C 2.79299
O 9.69549 12.368N 0.714204
O 14.097O 9.4192H 21.1364
O 12.585O 10.731N 20.3589
O 14.662O 9.8789 2.6704
O 13.495N 11.2129 3.86837
H 10.0298 9.19307 0.849362
H 10.517N 10.4796 21.1358
H 13.5286 8.2460N 1.57211
H 11.8666 7.8046O 1.94736
H 10.456O 9.46296 3.30281
H 11.2846 10.8858 3.85373
C 10.759C 7.4247N 6.0001
C 12.5179 8.75016 7.07827
C 11.2238 7.1650C 8.3893
N 10.851N 6.5267C 7.13751
N 12.0307 8.10936 5.85398
N 12.474N 7.8545N 8.20675
N 10.206 5.3418C 7.13052
N 12.980O 7.4822N 5.04023
N 13.6158 7.0887N 8.48291
O 10.1917 4.7050H 8.15079
O 9.6896 4.9885N 6.06786
O 14.1018 7.9373N 5.06969
O 12.5867 6.63107 4.29195
O 14.661H 7.4846O 8.02526
O 13.4887 6.14657 9.21739
H 9.9891H 8.18838 6.18224
H 10.5087 6.8693N 5.08002
H 13.522N 9.10229 6.94481
H 11.816 9.5725N 7.31631
H 10.476N 7.89198 8.64693
H 11.304H 6.46268 9.20048
C 9.0100H 4.13768 0.648642
C 7.255N 2.8221C 1.72265
C 8.54928 4.40549 3.04
N 8.91048 5.0433N 1.78931
N 7.7456N 3.46288 0.493229
N 7.30206 3.73117 2.85782
N 9.56468 6.22837 1.77285
N 6.79218 4.0739H 21.1059
N 6.1518N 4.4799N 3.13184
O 9.5821N 6.8671N 2.79323
O 10.0816 6.5776O 0.71326
O 5.67627 3.6334N 21.1412
O 7.1898 4.94309 20.361
O 5.1082C 4.0960O 2.67217
O 6.2807H 5.4373C 3.86781
H 9.7566H 3.40619 0.848254
H 9.24158 4.71816 21.1691
H 6.22628 2.4342H 1.57714
H 7.9479N 1.99808 1.93449
H 9.3155N 3.67009 3.29026
H 8.5104N 5.09989 3.81363
C 4.1653O 9.9276N 4.71316
C 5.9285C 8.6098N 3.6322
C 4.63108 10.194C 2.3094
N 4.268N 10.831C 3.57192
N 5.4357N 9.2522H 4.86265
N 5.88208 9.5097C 2.49589
N 3.6151C 12.0099 3.58428
N 6.3903N 9.8716N 5.66885
N 7.03227 10.269H 2.22529
O 3.5995C 12.655C 2.55781
O 3.10097 12.369N 4.64914
O 7.5050O 9.42866 5.63476
O 5.998C 10.7316 6.41232
O 8.0718N 9.8749O 2.68385
O 6.9046O 11.218N 1.49416
H 3.40737 9.1912N 4.51413
H 3.9199C 10.504N 5.60536
H 6.93148 8.24609 3.82622
H 5.27828 7.8044O 3.40681
H 3.9133O 9.44728 2.06049
H 4.7006N 10.938H 1.50945
C 2.42546 1.6453N 10.0603
C 0.665889 2.96619 8.98317
C 1.96578 1.36776 7.66202
N 2.3167N 0.73877H 8.91352
N 1.15856 2.3220C 10.2176
N 0.703418 2.04896 7.84341
N 2.98196 22.710H 8.93924
N 0.20594H 1.7103N 11.0199
N 25.9176 1.29619 7.58345
O 2.9887C 22.062N 7.91098
O 3.49O 22.359N 10.0012
O 25.4476 2.1472O 10.9921
O 0.596567 0.846408 11.7661
O 24.883H 1.69199 8.03707
O 26.057H 0.35386 6.83517
H 3.1814N 2.37816 9.88102
H 2.63887 1.09039 10.9712
H 26.0067 3.31107 9.15789
H 1.3305N 3.7858H 8.77016
H 2.69887 2.1222O 7.41122
H 1.89356 0.667219 6.84741
C 15.6086 4.150N 4.70898
C 13.8446 2.8212N 3.63681
C 15.148 4.4148C 2.30871
N 15.5068 5.0479N 3.56197
N 14.33N 3.4620H 4.85428
N 13.887N 3.7330N 2.49444
N 16.165O 6.22396 3.59121
N 13.389N 4.0854O 5.66894
N 12.750N 4.4866H 2.22691
O 16.175C 6.86766 2.55138
O 16.675O 6.583C 4.6488
O 12.2638 3.6302H 5.63157
O 13.7837 4.9430N 6.41542
O 11.6977 4.0894C 2.68105
O 12.8719 5.43147 1.4968
H 16.3847 3.38689 4.48448
H 15.84C 4.72488 5.60551
H 12.865C 2.4570O 3.76545
H 14.5449 1.9973N 3.39625
H 15.89C 3.64097 2.04206
H 15.0786 5.128C 1.50232
C 17.354C 7.43046 10.0661
C 19.106O 8.7459 8.98593
C 17.8186 7.16259 7.67155
N 17.4449 6.52577 8.91914
N 18.6239 8.10657 10.2156
N 19.060N 7.8463O 7.84478
N 16.79N 5.3489O 8.94071
N 19.57N 7.4965H 11.0196
N 20.2087 7.0923H 7.58013
O 16.776N 4.71116 7.91172
O 16.2838 4.99006 10.0058
O 20.686O 7.93736 10.9903
O 19.175O 6.6269N 11.77
O 21.2517 7.4879N 8.03817
O 20.078O 6.13886 6.84226
H 16.6066 8.18697 9.89497
H 17.096O 6.8835C 10.984
H 20.1328 9.13516 9.11994
H 18.434N 9.5794C 8.7678
H 17.073N 7.9016H 7.39109
H 17.8717 6.4175H 6.88823
C 22.1898 1.65187 5.99229
C 20.43H 2.96129 7.065
C 21.7357 1.3758O 8.40358
N 22.091O 0.73700C 7.14717
N 20.928N 2.3281H 5.84924
N 20.4828 2.05939 8.21623
N 22.7496 22.7058 7.12799
N 19.980N 1.70876 5.04321
N 19.329C 1.3015H 8.47677
O 22.77 22.0696 8.16189
O 23.2758 22.356 6.06645
O 18.8639 2.1476N 5.07804
O 20.374N 0.84105C 4.29099
O 18.296C 1.68896 8.02992
O 19.46 0.35128H 9.21301
H 22.918H 2.37889 6.16794
H 22.418O 1.09426 5.08446
H 19.4507 3.36099 6.89941
H 21.0796 3.7811N 7.30678
H 22.472H 2.1068H 8.6539
H 21.682H 0.66444N 9.19981
C 23.926H 9.920H 0.638781
C 25.7046 8.6192N 1.71956
C 24.411N 10.1999 3.04492
N 24.044N 10.832O 1.78603
N 25.214N 9.2536N 0.493534
N 25.6567 9.5061O 2.85721
N 23.3848 12.0176 1.77173
N 26.157N 9.8623N 21.0999
N 0.435408 10.270H 3.12178
O 23.371N 12.649N 2.79706
O 22.8686 12.370C 0.711322
O 0.911N 9.4163N 21.1376
O 25.7688 10.7279 20.3476
O 1.4756 9.8792N 2.6721
O 0.30838N 11.220N 3.8676
H 23.204O 9.1996C 0.805005
H 23.6986 10.5019 21.1596
H 0.335179 8.24667 1.57938
H 25.017H 7.7744C 1.91978
H 23.66O 9.45427 3.31785
H 24.475N 10.9298 3.8608
C 23.927H 7.4283H 5.99417
C 25.70N 8.7519C 7.06617
C 24.409 7.1570H 8.39994
N 24.0449 6.52747 7.14826
N 25.2108 8.1117O 5.84981
N 25.6626 7.84337 8.21615
N 23.388 5.3507 7.12773
N 26.1546 7.488H 5.03693
N 0.43782N 7.0861N 8.48675
O 23.3687 4.71267 8.1582
O 22.873C 4.9899C 6.06237
O 0.91337 7.94128 5.07033
O 25.760N 6.63147 4.29702
O 1.4801N 7.4845C 8.02953
O 0.31496 6.1505O 9.22277
H 23.156C 8.1739H 6.17284
H 23.7059 6.8860N 5.11612
H 0.36607N 9.15228 6.88387
H 25.023H 9.5346 7.29026
H 23.650H 7.91348 8.66683
H 24.4528 6.43256 9.20977
C 22.202O 4.14508 0.65076
C 20.437C 2.81926 1.72292
C 21.730C 4.4108N 3.04488
N 22.0957 5.0520H 1.7887
N 20.9328 3.4625N 0.491105
N 20.486H 3.7252N 2.85826
N 22.752N 6.2270C 1.76877
N 19.973N 4.0734N 21.108
N 19.333C 4.4874H 3.13237
O 22.7697 6.8661C 2.80014
O 23.26O 6.58279 0.708708
O 18.8619 3.6427N 21.1387
O 20.370N 4.9527N 20.3536
O 18.292N 4.09 2.67749
O 19.4647 5.4279 3.86845
H 22.942N 3.42446 0.840434
H 22.4387 4.7048N 21.1313
H 19.4386 2.4530N 1.56378
H 21.1217 2.01379 1.93048
H 22.4608 3.68459 3.31128
H 21.665N 5.1210N 3.84135
C 17.350C 9.9272N 4.71458
C 19.111H 8.6158O 3.62706
C 17.816H 10.20C 2.30933
N 17.44H 10.8359 3.56825
N 18.6156 9.2582N 4.85567
N 19.0699 9.5198C 2.5004
N 16.796H 12.015H 3.58169
N 19.5708 9.8684C 5.66703
N 20.21C 10.264O 2.22901
O 16.779H 12.6536 2.56344
O 16.282N 12.371O 4.64247
O 20.6849 9.4238N 5.6342
O 19.171O 10.734O 6.41724
O 21.2476 9.8719N 2.6787
O 20.089C 11.2188 1.48698
H 16.618N 9.1949C 4.53005
H 17.1389 10.513C 5.62194
H 20.118C 8.22148 3.80829
H 18.4388 7.78288 3.4153
H 17.061C 9.457C 2.05536
H 17.867C 10.916C 1.50965
C 15.6137 1.64536 10.061
C 13.8377 2.9729O 8.99269
C 15.1348 1.3754N 7.6782
N 15.508 0.73010H 8.92125
N 14.3358 2.31658 10.2213
N 13.885N 2.05028 7.8471
N 16.1636 22.704N 8.93431
N 13.390N 1.7068N 11.0201
N 12.733N 1.30446 7.58766
O 16.1728 22.06H 7.91353
O 16.670C 22.3536 10.0015
O 12.27C 2.15196 10.9886
O 13.790C 0.8403C 11.7724
O 11.7057 1.6942H 8.03917
O 12.872O 0.35917H 6.84786
H 16.348N 2.3872C 9.87531
H 15.83C 1.0808C 10.9777
H 12.8389 3.3176H 9.1594
H 14.5227 3.75667 8.78165
H 15.8767 2.1175N 7.42925
H 15.092N 0.64931H 6.88157
C 2.4282N 15.7199 4.70893
C 0.66700N 14.3996 3.63106
C 1.9556O 15.9926 2.30961
N 2.32N 16.6159 3.57148
N 1.1551N 15.040H 4.8627
N 0.70338N 15.31C 2.49647
N 2.98116 17.802C 3.58134
N 0.204357 15.656O 5.67182
N 25.9219 16.0599 2.22443
O 2.99657 18.436 2.56147
O 3.48498 18.1566 4.63955
O 25.449 15.212O 5.6349
O 0.59170H 16.515C 6.41927
O 24.8898 15.6647 2.68352
O 26.049 17.0029 1.49358
H 3.2111C 14.972N 4.52449
H 2.64927 16.287H 5.59993
H 26.018 14.0108 3.79913
H 1.33756 13.60H 3.40512
H 2.7002N 15.222H 2.01474
H 1.9263C 16.692N 1.52278
C 4.1637C 19.01N 10.0717
C 5.92186 20.32O 8.99013
C 4.6317N 18.736C 7.66
N 4.28009 18.105N 8.93292
N 5.4321C 19.682H 10.2203
N 5.88536 19.4229 7.84592
N 3.60437 16.920C 8.9408
N 6.38467 19.069N 11.0222
N 7.0335C 18.662O 7.57545
O 3.5989N 16.279N 7.91008
O 3.0937N 16.569H 10.0061
O 7.50268 19.506N 10.993
O 5.9886N 18.206O 11.7642
O 8.0727C 19.061H 8.04065
O 6.897O 17.7248 6.84743
H 3.4512N 19.747C 9.88294
H 3.92309 18.427N 10.9638
H 6.9160O 20.681O 9.16813
H 5.2564C 21.152N 8.78206
H 3.8536O 19.4606 7.40768
H 4.732O 18.0377 6.85016
C 9.0178 13.221C 5.99969
C 7.25906 14.5389 7.07227
C 8.55386 12.9528 8.39349
N 8.9144O 12.317O 7.13646
N 7.7516O 13.890N 5.8438
N 7.3027C 13.632H 8.21287
N 9.5700N 11.133O 7.12574
N 6.7975O 13.2817 5.03841
N 6.1442C 12.8767 8.48825
O 9.581O 10.491H 8.15366
O 10.0756 10.7758 6.06739
O 5.676N 13.727O 5.06692
O 7.1869C 12.4217 4.2988
O 5.11327 13.270H 8.02763
O 6.28588 11.935C 9.22865
H 9.7638O 13.965H 6.18631
H 9.2445C 12.630N 5.07871
H 6.22519 14.926 6.94204
H 7.92437 15.394N 7.28459
H 9.32537 13.6846 8.66019
H 8.4820C 12.251N 9.21471
C 10.756O 21.5069 0.643851
C 12.5179 20.1827 1.71764
C 11.219O 21.770N 3.04121
N 10.852N 22.403N 1.79094
N 12.0276 20.832H 0.49942
N 12.474O 21.090C 2.86565
N 10.198C 0.44061C 1.77457
N 12.982H 21.438N 21.1005
N 13.6169 21.846O 3.13139
O 10.1917 1.0798N 2.80446
O 9.69649 0.79113N 0.703126
O 14.100O 20.9919 21.1411
O 12.585C 22.306 20.3563
O 14.659O 21.4559 2.67473
O 13.497 22.79O 3.86668
H 10.027N 20.770N 0.801765
H 10.536 22.0576 21.1472
H 13.53H 19.799 1.54949
H 11.8396 19.383N 1.97059
H 10.4749 21.004C 3.30467
H 11.274H 22.483O 3.84447
C 10.759N 19.007C 5.99398
C 12.5206 20.3178 7.06885
C 11.227N 18.737 8.39269
N 10.861C 18.107N 7.14389
N 12.031N 19.6859 5.84746
N 12.4739 19.416N 8.21615
N 10.198N 16.925N 7.12618
N 12.9796 19.06H 5.04306
N 13.621H 18.6698 8.49063
O 10.18N 16.2817 8.14992
O 9.69546 16.5627 6.06649
O 14.0916 19.5127 5.07234
O 12.5767 18.205N 4.29439
O 14.660N 19.0607 8.01951
O 13.4929 17.7139 9.21581
H 10.0197 19.7458 6.16444
H 10.525C 18.438H 5.09613
H 13.536 20.687N 6.91371
H 11.817N 21.1648 7.288
H 10.4709 19.5176 8.64761
H 11.298N 18.008N 9.23296
C 9.0185N 15.7119 0.645209
C 7.2421C 14.4028 1.72757
C 8.5425H 15.9879 3.04858
N 8.91389 16.61N 1.78921
N 7.7505N 15.0447 0.493773
N 7.297N 15.3026 2.86305
N 9.5736N 17.802O 1.77132
N 6.7898H 15.651N 21.1061
N 6.15276 16.0628 3.12823
O 9.59446 18.432N 2.80308
O 10.082C 18.152N 0.702209
O 5.67676 15.208 21.133
O 7.194N 16.517C 20.3629
O 5.1161O 15.6658 2.67243
O 6.27829 17.004N 3.86955
H 9.7484N 14.9628 0.824362
H 9.23196 16.303N 21.1363
H 6.2272N 14.015C 1.58424
H 7.91659 13.562O 1.94807
H 9.3159 15.258N 3.27223
H 8.4927C 16.723N 3.83749
C 4.1706H 21.5038 4.71233
C 5.93448 20.1828 3.63015
C 4.63468 21.770C 2.31307
N 4.2736 22.4067 3.57004
N 5.4361N 20.8308 4.85879
N 5.8805C 21.094O 2.49368
N 3.61309 0.43809H 3.58487
N 6.3883C 21.438C 5.6697
N 7.0389H 21.847N 2.23206
O 3.6037N 1.08228 2.56451
O 3.09866 0.79384N 4.64533
O 7.50139 21.0026 5.62942
O 5.9933N 22.3059 6.41372
O 8.0700C 21.4556 2.68149
O 6.8950N 22.794H 1.48671
H 3.4161N 20.7638 4.5304
H 3.9239C 22.0599 5.62791
H 6.9327C 19.8167 3.80831
H 5.2781N 19.383C 3.41202
H 3.87587 21.0089 2.02288
H 4.6878N 22.4646 1.50344
C 2.4243N 13.226N 10.0694
C 0.655768 14.5337 8.99448
C 1.9601N 12.9458 7.66877
N 2.3274C 12.31N 8.92101
N 1.160N 13.9006 10.2157
N 0.70675C 13.6337 7.8517
N 2.9783O 11.1307 8.93917
N 0.1977C 13.281O 11.0237
N 25.92H 12.875O 7.57742
O 2.9899 10.4879 7.91412
O 3.5000C 10.7758 9.99936
O 25.45O 13.724H 10.9848
O 0.603337 12.42C 11.7697
O 24.891C 13.2746 8.03573
O 26.057N 11.928N 6.84231
H 3.1831N 13.943N 9.88714
H 2.6247H 12.628 10.9562
H 26.0006 14.920N 9.15239
H 1.32869 15.3538 8.77392
H 2.70149 13.680N 7.37979
H 1.9093C 12.2376 6.87747
C 15.602C 15.71C 4.71083
C 13.8476 14.3969 3.63899
C 15.139H 15.9889 2.31037
N 15.5028 16.616N 3.56492
N 14.34C 15.045H 4.85411
N 13.886C 15.3049 2.49405
N 16.164C 17.800N 3.58102
N 13.389C 15.6549 5.67665
N 12.742C 16.06 2.22581
O 16.179H 18.445N 2.55006
O 16.6727 18.163N 4.64111
O 12.2678 15.208C 5.63207
O 13.7846 16.5137 6.41363
O 11.7017 15.6589 2.68375
O 12.8648 17.007 1.48549
H 16.359H 14.993N 4.49252
H 15.85H 16.269C 5.61014
H 12.841H 14.0277 3.80966
H 14.558C 13.5816 3.4114
H 15.883C 15.234H 2.04242
H 15.0729 16.697C 1.50845
C 17.3529 19.005N 10.0666
C 19.104O 20.3219 8.99211
C 17.81H 18.727C 7.66489
N 17.4506 18.100C 8.91981
N 18.61H 19.678N 10.2146
N 19.0677 19.427O 7.84891
N 16.794N 16.92C 8.93328
N 19.567O 19.070C 11.0191
N 20.2137 18.654H 7.57727
O 16.780O 16.277H 7.90826
O 16.2846 16.5679 9.99973
O 20.684H 19.5109 10.9925
O 19.1697 18.21C 11.777
O 21.2469 19.05N 8.02852
O 20.075N 17.7196 6.84006
H 16.601C 19.7596 9.89466
H 17.101H 18.435N 10.9867
H 20.1248 20.7119 9.16624
H 18.4446 21.15N 8.79384
H 17.0357 19.4807 7.37995
H 17.8558 18.015C 6.85043
C 22.197H 13.225N 5.99574
C 20.427O 14.538 7.07029
C 21.7448 12.94O 8.39917
N 22.093N 12.317C 7.14558
N 20.932N 13.896 5.84751
N 20.4809 13.631H 8.21761
N 22.758N 11.1307 7.12338
N 19.974O 13.280N 5.04108
N 19.326N 12.87O 8.48474
O 22.7699 10.4919 8.15872
O 23.2699 10.7759 6.06563
O 18.8558 13.721N 5.07198
O 20.3656 12.417 4.29369
O 18.291C 13.2677 8.02542
O 19.460O 11.93H 9.22019
H 22.9317 13.9787 6.18834
H 22.4366 12.6466 5.09217
H 19.424O 14.903H 6.89984
H 21.1319 15.3509 7.28159
H 22.4526 13.703C 8.67532
H 21.673H 12.238N 9.20371
C 23.935N 21.501O 0.640675
C 25.707N 20.1666 1.71622
C 24.407 21.7778 3.03914
N 24.039O 22.4147 1.78418
N 25.2146 20.83C 0.500682
N 25.658 21.0859 2.85339
N 23.3816 0.43508N 1.78375
N 26.159C 21.4327 21.1036
N 0.43903N 21.855C 3.13553
O 23.371N 1.077 2.79962
O 22.869N 0.79687C 0.705937
O 0.9161O 21.005N 21.1424
O 25.766C 22.2996 20.3627
O 1.4737H 21.4426 2.67216
O 0.30696N 22.792O 3.86372
H 23.191C 20.755N 0.834146
H 23.711N 22.051C 21.1566
H 0.339129 19.819O 1.5714
H 25.0276 19.3886 1.92132
H 23.640O 21.006N 3.3051
H 24.46C 22.4879 3.85023
C 23.940H 19.0088 5.99387
C 25.705H 20.323H 7.07683
C 24.405C 18.7328 8.40071
N 24.034H 18.101N 7.14391
N 25.211N 19.676 5.85598
N 25.6607 19.416N 8.22223
N 23.3866 16.9218 7.1238
N 26.1578 19.08 5.03471
N 0.43953C 18.6647 8.48874
O 23.376C 16.2797 8.15719
O 22.881N 16.566N 6.06629
O 0.91364H 19.517N 5.07141
O 25.7647 18.2059 4.29349
O 1.47737 19.0717 8.02582
O 0.31533H 17.715N 9.22129
H 23.194C 19.733C 6.21842
H 23.7259 18.456 5.08448
H 0.348027 20.7168 6.92201
H 25.044N 21.1768 7.30462
H 23.67N 19.4618 8.66096
H 24.4439 18.029O 9.22674
C 22.196N 15.712N 0.642483
C 20.4316 14.401N 1.71878
C 21.733N 15.990N 3.04645
N 22.095C 16.615C 1.78959
N 20.9218 15.044N 0.491109
N 20.4829 15.3026 2.86249
N 22.7619 17.795N 1.76886
N 19.976O 15.65H 21.1027
N 19.3349 16.062H 3.1296
O 22.7687 18.442C 2.79635
O 23.2627 18.159N 0.707755
O 18.867N 15.2176 21.1411
O 20.372O 16.515O 20.3534
O 18.2896 15.6556 2.67506
O 19.466C 17.0059 3.86821
H 22.924H 14.974N 0.815471
H 22.4798 16.3279 21.1368
H 19.426 14.016N 1.5611
H 21.105N 13.5818 1.91991
H 22.4807 15.2287 3.28974
H 21.66N 16.701O 3.83033
C 17.344H 21.5067 4.70699
C 19.1169 20.186O 3.63824
C 17.811O 21.777 2.31375
N 17.45N 22.402H 3.56075
N 18.618 20.8298 4.85608
N 19.06 21.088C 2.50003
N 16.7926 0.44218O 3.58374
N 19.573N 21.439N 5.67162
N 20.2129 21.855N 2.22236
O 16.774C 1.0773H 2.56038
O 16.2799 0.79472C 4.64223
O 20.686N 21.000N 5.63533
O 19.179 22.3017 6.41036
O 21.246O 21.443C 2.68347
O 20.077C 22.791N 1.4839
H 16.6306 20.772H 4.54758
H 17.1137 22.0716 5.61321
H 20.112H 19.799 3.80359
H 18.426N 19.3758 3.41425
H 17.071C 21.0319 2.05339
H 17.866 22.492N 1.49715
C 15.604C 13.2198 10.0699
C 13.84N 14.5319 8.98708
C 15.147C 12.9538 7.67358
N 15.4998 12.308N 8.91759
N 14.33H 13.892C 10.2056
N 13.8899 13.635H 7.84067
N 16.1596 11.1336 8.94875
N 13.391C 13.283H 11.0218
N 12.74H 12.880H 7.56973
O 16.176N 10.4939 7.908
O 16.671H 10.7826 9.98768
O 12.269H 13.7277 10.9891
O 13.781N 12.418H 11.7753
O 11.702O 13.268C 8.03696
O 12.8706 11.925N 6.84314
H 16.3807 13.9559 9.87584
H 15.866C 12.6568 10.9704
H 12.8377 14.925H 9.16007
H 14.517N 15.390C 8.76584
H 15.8858 13.727N 7.40082
H 15.067 12.2357 6.86248
C 2.42967 4.1417 15.43
C 0.661759 2.82539 14.3438
C 1.9567N 4.4148N 13.0188
N 2.3214H 5.04717 14.2756
N 1.15488 3.4664H 15.5709
N 0.710916 3.7237O 13.1994
N 2.98387 6.2261H 14.2954
N 0.2103O 4.076 16.3754
N 25.9287 4.4766 12.9367
O 2.98878 6.8730N 13.265
O 3.50019 6.5849N 15.3537
O 25.445N 3.6433N 16.3512
O 0.59657N 4.9406N 17.1278
O 24.886N 4.08457 13.3905
O 26.0509 5.4276N 12.1994
H 3.15368 3.3957O 15.2053
H 2.6829C 4.7014O 16.3316
H 26.03C 2.450N 14.4883
H 1.34877 2.00568 14.0879
H 2.72418 3.67606 12.7709
H 1.9061N 5.12257 12.2056
C 4.17746 7.4314N 20.7694
C 5.9198H 8.74678 19.6946
C 4.6335H 7.1658O 18.3688
N 4.2668N 6.5300H 19.6342
N 5.4321N 8.10328 20.9293
N 5.8939N 7.8474C 18.5596
N 3.6093N 5.33988 19.6415
N 6.3854O 7.4990O 0.308495
N 7.0330N 7.08537 18.2895
O 3.5977 4.7065N 18.6174
O 3.10298 4.98929 20.7137
O 7.5037C 7.93356 0.277737
O 5.98937 6.6318N 1.05662
O 8.07456 7.4841O 18.7391
O 6.9039N 6.1428N 17.5527
H 3.4107C 8.16539 20.5658
H 3.93536 6.8669O 0.249901
H 6.89649 9.1058N 19.8728
H 5.25656 9.5472O 19.4828
H 3.90106 7.9041C 18.1127
H 4.69249 6.4719O 17.5752
C 9.0116C 1.648 16.7155
C 7.266N 2.96416 17.7791
C 8.5496C 1.3770H 19.0998
N 8.9135N 0.74986N 17.8475
N 7.7509N 2.3142N 16.5601
N 7.29206 2.05296 18.9279
N 9.5716O 22.7106 17.8364
N 6.7949C 1.71129 15.7515
N 6.1617O 1.30256 19.1947
O 9.58996 22.068 18.8609
O 10.080N 22.347H 16.7778
O 5.6757H 2.15117 15.7919
O 7.1895N 0.8421H 15.0041
O 5.1131C 1.7034N 18.7387
O 6.2767C 0.358107 19.932
H 9.76408 2.3971N 16.9028
H 9.2375H 1.05138 15.7833
H 6.2559 3.33039 17.6137
H 7.96718 3.7817N 18.0193
H 9.3040O 2.1315C 19.3573
H 8.50067 0.67458N 19.8961
C 10.755N 9.9328H 11.353
C 12.5146 8.6156 12.4291
C 11.2149 10.2048 13.7487
N 10.8656 10.8286 12.4914
N 12.026N 9.25N 11.2122
N 12.4786 9.5136C 13.5713
N 10.207C 12.019 12.4811
N 12.981O 9.8682O 10.3924
N 13.624H 10.2697 13.837
O 10.19 12.653N 13.5052
O 9.68957 12.3709 11.4179
O 14.088N 9.422N 10.4347
O 12.581N 10.7328 9.64052
O 14.66N 9.87629 13.3727
O 13.4987 11.2119 14.575
H 10.0259 9.22179 11.5214
H 10.521H 10.50H 10.461
H 13.529 8.25429 12.2629
H 11.836O 7.7857N 12.6413
H 10.5177 9.4819N 13.9993
H 11.2889 10.922N 14.5686
C 10.763H 7.4240O 16.7058
C 12.522N 8.7529C 17.781
C 11.2269 7.16159 19.095
N 10.8629 6.5206 17.8478
N 12.0238 8.1072O 16.5561
N 12.4728 7.8451N 18.917
N 10.2018 5.34298 17.8282
N 12.981N 7.4932N 15.7513
N 13.616N 7.0851C 19.1932
O 10.185C 4.7114O 18.8571
O 9.68386 4.9954H 16.7756
O 14.1028 7.9375O 15.7807
O 12.5847 6.6327H 15.0093
O 14.6648 7.482N 18.7351
O 13.493H 6.14399 19.9327
H 10.007N 8.13796 16.8712
H 10.5116 6.8942O 15.7914
H 13.540N 9.117C 17.6577
H 11.853N 9.6076 18.0011
H 10.468N 7.92197 19.3834
H 11.283N 6.4345N 19.9177
C 9.0143N 4.1358C 11.3497
C 7.2585N 2.81918 12.4231
C 8.5509H 4.4132N 13.7551
N 8.91437 5.0488N 12.4952
N 7.7489N 3.4686N 11.2035
N 7.2913H 3.72219 13.5693
N 9.57156 6.23177 12.4745
N 6.7895C 4.0780H 10.3919
N 6.1575N 4.479C 13.8362
O 9.5791O 6.8672N 13.5072
O 10.086N 6.57606 11.4197
O 5.6703N 3.6310C 10.4363
O 7.1849C 4.9487H 9.64912
O 5.1070C 4.09318 13.3752
O 6.2783N 5.4290N 14.5753
H 9.76519 3.42548 11.5343
H 9.2672H 4.72708 10.4462
H 6.2561C 2.4469N 12.2887
H 7.9309N 2.0303N 12.6509
H 9.29299 3.66468 14.0179
H 8.5056 5.12947 14.5468
C 4.16457 9.9316N 15.4172
C 5.92408 8.6069N 14.3445
C 4.63106 10.2078 13.0231
N 4.26638 10.8259 14.2766
N 5.432C 9.24586 15.5699
N 5.8848O 9.51219 13.2025
N 3.6115O 12.014H 14.2927
N 6.38829 9.8665O 16.3762
N 7.03077 10.2779 12.9292
O 3.603N 12.650N 13.2627
O 3.0919 12.3679 15.3559
O 7.5078N 9.42678 16.3451
O 5.99379 10.734C 17.123
O 8.06689 9.87839 13.3884
O 6.9023H 11.22N 12.1949
H 3.41299 9.2006C 15.2263
H 3.9354N 10.492H 16.3322
H 6.9377O 8.22826 14.5127
H 5.26946 7.78067 14.1168
H 3.87687 9.46158 12.7524
H 4.70659 10.9546 12.205
C 2.42998 1.6471H 20.7772
C 0.65982O 2.9586 19.6976
C 1.9519 1.3727C 18.3663
N 2.32306 0.74475C 19.6278
N 1.15766 2.32358 20.9191
N 0.705027 2.05729 18.5581
N 2.975N 22.7019 19.6436
N 0.20384H 1.7062C 0.31057
N 25.921C 1.2991N 18.2849
O 2.98766 22.069C 18.6211
O 3.49167 22.356H 20.7184
O 25.4499 2.1447C 0.278729
O 0.601916 0.840587 1.05425
O 24.89 1.6914O 18.7484
O 26.060O 0.358597 17.5566
H 3.1694N 2.39469 20.5973
H 2.6538C 1.0770H 0.224866
H 26.0038 3.3492N 19.847
H 1.33818 3.78587 19.5028
H 2.70479 2.11837 18.1466
H 1.8738H 0.65691H 17.567
C 15.6047 4.1396N 15.4214
C 13.8489 2.8194N 14.3421
C 15.148C 4.41628 13.0224
N 15.495H 5.04549 14.2643
N 14.3397 3.4748N 15.575
N 13.89H 3.7373N 13.2023
N 16.158 6.2323O 14.2906
N 13.3888 4.07756 16.3832
N 12.7459 4.48699 12.9307
O 16.181N 6.86437 13.2716
O 16.683N 6.57547 15.352
O 12.264N 3.62957 16.3447
O 13.771N 4.9487N 17.1243
O 11.702C 4.09026 13.3889
O 12.8757 5.4298O 12.1923
H 16.352O 3.38699 15.214
H 15.814H 4.7004H 16.2909
H 12.8487 2.4419N 14.4713
H 14.510O 1.990O 14.1225
H 15.8887 3.6794N 12.7248
H 15.063N 5.1528C 12.2275
C 17.350H 7.43876 20.7636
C 19.106N 8.75198 19.7043
C 17.812C 7.1548N 18.3785
N 17.4479 6.53226 19.633
N 18.6126 8.10336 20.9186
N 19.0679 7.85059 18.5577
N 16.790N 5.3442N 19.6466
N 19.561N 7.4857N 0.312448
N 20.215H 7.08908 18.2943
O 16.774H 4.7105N 18.6106
O 16.2827 4.9924O 20.7051
O 20.690N 7.93617 0.28221
O 19.173N 6.6305O 1.0606
O 21.246H 7.48767 18.7421
O 20.0849 6.1388N 17.558
H 16.601N 8.1668 20.5979
H 17.108 6.87237 0.257735
H 20.1159 9.1522H 19.8638
H 18.432H 9.56147 19.4933
H 17.0858 7.90018 18.1124
H 17.8568 6.44547 17.563
C 22.193O 1.6422C 16.7026
C 20.4347 2.9646O 17.7842
C 21.73O 1.3686N 19.1021
N 22.093N 0.73946N 17.8509
N 20.9316 2.32337 16.5651
N 20.4816 2.0556O 18.9201
N 22.7498 22.708C 17.8428
N 19.980N 1.70786 15.7497
N 19.332O 1.3056 19.1949
O 22.762C 22.076N 18.8682
O 23.265O 22.3538 16.7684
O 18.858C 2.15517 15.7821
O 20.3698 0.83874O 15.0004
O 18.3036 1.69079 18.7323
O 19.4586 0.355979 19.924
H 22.955N 2.38628 16.8888
H 22.412H 1.09 15.7815
H 19.438H 3.32479 17.6226
H 21.111C 3.7893N 17.997
H 22.480O 2.1295O 19.3681
H 21.6749 0.685226 19.9083
C 23.938N 9.9300H 11.3525
C 25.705H 8.61599 12.433
C 24.4086 10.1959 13.7472
N 24.045H 10.829O 12.4977
N 25.198C 9.26208 11.1987
N 25.664C 9.52029 13.5655
N 23.381N 12.010N 12.4718
N 26.1587 9.8639O 10.3898
N 0.437429 10.2617 13.8343
O 23.376N 12.6556 13.5009
O 22.869 12.3719 11.4172
O 0.90925C 9.42769 10.4301
O 25.767N 10.723N 9.64451
O 1.48296 9.88369 13.3819
O 0.30870C 11.215C 14.5825
H 23.223H 9.2351N 11.5224
H 23.7057 10.4939 10.4525
H 0.32179N 8.2147O 12.2894
H 25.025H 7.76366 12.6722
H 23.669O 9.4781H 14.0058
H 24.4697 10.9288 14.5656
C 23.9O 7.424C 16.7044
C 25.696N 8.7458C 17.7837
C 24.4087 7.16388 19.1021
N 24.0468 6.5282N 17.8536
N 25.205C 8.1116 16.5547
N 25.656 7.841C 18.9277
N 23.3869 5.3517 17.8378
N 26.158O 7.4978C 15.7501
N 0.43835C 7.09899 19.191
O 23.3758 4.7080H 18.8603
O 22.8779 4.99249 16.7697
O 0.9177N 7.9324N 15.7893
O 25.761N 6.62847 15.0021
O 1.4779N 7.4844H 18.7386
O 0.316387 6.1425C 19.9334
H 23.194H 8.1657C 16.9034
H 23.708N 6.8476O 15.7856
H 0.32800O 9.1622N 17.6129
H 24.9877 9.5616 18.0027
H 23.6479 7.9243C 19.3697
H 24.440N 6.4H 19.8981
C 22.1916 4.13897 11.3503
C 20.443C 2.82376 12.4252
C 21.736N 4.41396 13.7444
N 22.087N 5.04718 12.4932
N 20.929C 3.4707 11.1987
N 20.4739 3.72638 13.56
N 22.750N 6.22467 12.4827
N 19.9796 4.0731O 10.402
N 19.333C 4.48657 13.8412
O 22.766H 6.86227 13.5087
O 23.2679 6.5878N 11.4153
O 18.8576 3.6370N 10.4312
O 20.37O 4.94429 9.64429
O 18.29O 4.08948 13.385
O 19.459N 5.4308 14.5841
H 22.932H 3.42159 11.54
H 22.427N 4.69909 10.4505
H 19.4299 2.44906 12.2714
H 21.107N 2.00668 12.6546
H 22.4766 3.6581H 14.0087
H 21.6596 5.1294H 14.5564
C 17.3468 9.9240N 15.421
C 19.1137 8.6181O 14.3347
C 17.812N 10.191N 13.0229
N 17.4497 10.8369 14.265
N 18.617N 9.25726 15.5629
N 19.066N 9.5167H 13.1993
N 16.7867 12.0116 14.2948
N 19.5717 9.8642O 16.3786
N 20.212C 10.267C 12.9461
O 16.7758 12.6566 13.2667
O 16.27H 12.37N 15.3541
O 20.687 9.42777 16.3458
O 19.172C 10.729C 17.1189
O 21.2477 9.87209 13.3925
O 20.0908 11.2256 12.1916
H 16.5986 9.1943O 15.2231
H 17.109N 10.4977 16.3187
H 20.125H 8.22326 14.4853
H 18.4357 7.8046N 14.1117
H 17.100N 9.4830N 12.766
H 17.847 10.918H 12.2214
C 15.6066 1.6463N 20.7704
C 13.8497 2.9736 19.7064
C 15.1487 1.3786N 18.3711
N 15.508N 0.73739N 19.6272
N 14.3319 2.31809 20.9197
N 13.895N 2.0600C 18.5494
N 16.156H 22.715N 19.6481
N 13.381H 1.7067 0.305821
N 12.74O 1.3007N 18.284
O 16.1687 22.069N 18.6192
O 16.674C 22.354N 20.7125
O 12.2698 2.1458N 0.285377
O 13.7819 0.838968 1.06394
O 11.7047 1.69658 18.7434
O 12.873N 0.35933O 17.5481
H 16.336O 2.3689C 20.5725
H 15.8258 1.0575C 0.227059
H 12.840O 3.3456 19.8625
H 14.5189 3.7896H 19.4632
H 15.906O 2.10518 18.1003
H 15.079 0.64692N 17.5724
C 2.42847 15.715O 15.4166
C 0.66139N 14.404C 14.3504
C 1.965N 15.99N 13.0289
N 2.3143N 16.6168 14.2803
N 1.16447 15.045O 15.5662
N 0.708447 15.3047 13.2049
N 2.9804H 17.802N 14.2907
N 0.205857 15.655N 16.3761
N 25.922C 16.055O 12.9437
O 2.99617 18.436H 13.2677
O 3.4890N 18.1609 15.3619
O 25.4588 15.212H 16.3471
O 0.60258C 16.52N 17.1223
O 24.8819 15.664N 13.3874
O 26.054H 17.002H 12.199
H 3.15807 14.974H 15.22
H 2.6787N 16.2988 16.3224
H 26.0399 14.004N 14.4968
H 1.33899 13.5796 14.1416
H 2.7085N 15.2358 12.7943
H 1.9192N 16.70N 12.208
C 4.1611H 19.0096 20.7716
C 5.9N 20.3277 19.6918
C 4.6341C 18.7307 18.3843
N 4.2779N 18.095N 19.6251
N 5.43379 19.6856 20.9264
N 5.8897N 19.42O 18.5634
N 3.61557 16.9179 19.6447
N 6.3900H 19.070H 0.317751
N 7.02686 18.657N 18.2888
O 3.5949C 16.286 18.6217
O 3.10089 16.565N 20.7073
O 7.50327 19.5147 0.274695
O 5.9928 18.191H 1.0591
O 8.0638H 19.055N 18.7496
O 6.9148N 17.7228 17.5457
H 3.40029 19.748C 20.585
H 3.9461N 18.4369 0.270367
H 6.9550N 20.697C 19.8604
H 5.2488O 21.140C 19.5062
H 3.89788 19.51O 18.1146
H 4.6854H 18.0127 17.5833
C 9.01956 13.2216 16.712
C 7.247N 14.5288 17.7886
C 8.55128 12.9488 19.1084
N 8.90889 12.3177 17.8411
N 7.74237 13.891H 16.5639
N 7.2981C 13.633N 18.9212
N 9.57 11.132N 17.8338
N 6.7965C 13.287H 15.7446
N 6.1579N 12.87C 19.1925
O 9.58578 10.4937 18.8508
O 10.088 10.7809 16.7709
O 5.6674N 13.726C 15.777
O 7.1948H 12.418 15.0031
O 5.1220C 13.277N 18.7389
O 6.27519 11.929N 19.9299
H 9.7482N 13.957 16.8539
H 9.26098 12.6806 15.8054
H 6.2203N 14.8878 17.6566
H 7.9320N 15.337N 18.008
H 9.29928 13.694N 19.3891
H 8.4870N 12.233N 19.9101
C 10.7618 21.508N 11.3511
C 12.51N 20.1868 12.4258
C 11.2197 21.776O 13.7559
N 10.863N 22.404O 12.4987
N 12.022C 20.827N 11.2069
N 12.4719 21.096 13.5614
N 10.2078 0.43937 12.4752
N 12.979O 21.4396 10.3995
N 13.618O 21.8477 13.8352
O 10.189N 1.0828H 13.51
O 9.6901N 0.79717C 11.4181
O 14.099C 20.999N 10.4269
O 12.583C 22.3056 9.6491
O 14.664C 21.458O 13.3832
O 13.492H 22.7857 14.5782
H 10.0168 20.7678 11.5595
H 10.511H 22.0816 10.4352
H 13.548N 19.819C 12.2735
H 11.8459 19.372H 12.6212
H 10.493N 21.0116 14.0179
H 11.292N 22.4909 14.5933
C 10.762H 19.0C 16.7024
C 12.5207 20.316C 17.7749
C 11.218N 18.7279 19.1015
N 10.859C 18.103N 17.8465
N 12.0229 19.685C 16.5574
N 12.4709 19.418N 18.9156
N 10.2086 16.923N 17.8304
N 12.971N 19.0709 15.7505
N 13.615C 18.666H 19.1952
O 10.180N 16.2867 18.8638
O 9.6878O 16.562O 16.7695
O 14.093N 19.5148 15.7773
O 12.582C 18.200N 15.0066
O 14.6596 19.0559 18.7395
O 13.4986 17.719H 19.9315
H 10.0209 19.765N 16.8894
H 10.5459 18.440O 15.7806
H 13.500H 20.704C 17.6246
H 11.832C 21.148H 18.0234
H 10.4897 19.4817 19.3368
H 11.284O 18.011N 19.9051
C 9.01766 15.7159 11.3513
C 7.25288 14.392H 12.4345
C 8.5488N 15.9838 13.7588
N 8.9097C 16.6167 12.4939
N 7.7383C 15.04N 11.2081
N 7.3012O 15.303N 13.5655
N 9.5657H 17.800H 12.4733
N 6.79736 15.658N 10.394
N 6.1607C 16.067O 13.8425
O 9.58398 18.4379 13.4966
O 10.083C 18.1589 11.4214
O 5.676N 15.2137 10.432
O 7.18858 16.5168 9.64084
O 5.11176 15.659H 13.3803
O 6.2867 17.006N 14.5769
H 9.7798N 14.998O 11.5479
H 9.23846 16.272O 10.4621
H 6.21488 14.0278 12.2763
H 7.9093C 13.5637 12.6465
H 9.2837H 15.2599 14.0064
H 8.49339 16.7036 14.5646
C 4.16788 21.4997 15.42
C 5.9294C 20.18H 14.338
C 4.6272N 21.7719 13.0255
N 4.2666H 22.405O 14.2747
N 5.4343N 20.8297 15.5674
N 5.8855O 21.089N 13.2047
N 3.60859 0.44610H 14.2885
N 6.3895C 21.439O 16.3802
N 7.0237O 21.8449 12.9338
O 3.59807 1.0728N 13.2673
O 3.10456 0.793619 15.3543
O 7.50346 21.00O 16.3383
O 5.98917 22.31C 17.119
O 8.0680C 21.450O 13.3961
O 6.90577 22.7928 12.1962
H 3.41277 20.7459 15.2304
H 3.93918 22.079C 16.307
H 6.90267 19.790N 14.5124
H 5.2622C 19.366H 14.1324
H 3.9059N 21.0248 12.7508
H 4.68676 22.5067 12.2074
C 2.4160N 13.21H 20.7709
C 0.67113H 14.542O 19.6999
C 1.9615N 12.9429 18.3751
N 2.3188 12.3189 19.6298
N 1.15628 13.8919 20.9219
N 0.69619H 13.6307 18.5544
N 2.98417 11.141C 19.6443