ITEM: TIMESTEP
1
ITEM: NUMBER OF ATOMS
1344
ITEM: BOX BOUNDS xy xz yz pp pp pp
0.0000000000000000e+00 2.6364000000000001e+01 0.0000000000000000e+00
0.0000000000000000e+00 2.3148000000000000e+01 0.0000000000000000e+00
-0.0000000000000000e+00 2.1417999999999999e+01 0.0000000000000000e+00
ITEM: ATOMS x y z 
0.203845 1.70621 0.31057 
0.601916 0.840587 1.05425 
0.675315 2.82396 3.63885 
1.34948 1.99744 3.42026 
1.95715 4.40866 2.3068 
0.709113 3.73224 2.49486 
1.89286 5.13086 1.53574 
2.42749 4.1406 4.7209 
2.31448 5.04782 3.56323 
1.15922 3.46955 4.85373 
2.65381 1.07705 0.224866 
3.60373 1.08228 2.56451 
3.61309 0.438095 3.58487 
3.09866 0.793842 4.64533 
2.70176 3.63695 2.0436 
5.10821 4.09604 2.67217 
3.16621 3.36725 4.54213 
1.96578 1.36776 7.66202 
0.703418 2.04896 7.84341 
1.89356 0.667219 6.84741 
2.42546 1.64532 10.0603 
2.31673 0.738775 8.91352 
1.15856 2.32201 10.2176 
0.205226 4.0757 5.67336 
0.604186 4.93806 6.41552 
0.665889 2.96619 8.98317 
1.33052 3.78585 8.77016 
5.11554 1.69904 8.03016 
2.69887 2.12224 7.41122 
3.18143 2.37816 9.88102 
2.63568 4.69811 5.59023 
3.59917 4.71347 7.9109 
3.60586 5.34574 8.93498 
3.08827 4.98793 10.0012 
0.205945 1.71032 11.0199 
0.596567 0.846408 11.7661 
0.661759 2.82539 14.3438 
1.34877 2.00568 14.0879 
1.95673 4.41482 13.0188 
0.710916 3.72374 13.1994 
1.90613 5.12257 12.2056 
2.42967 4.1417 15.43 
2.32145 5.04717 14.2756 
1.15488 3.46645 15.5709 
2.63887 1.09039 10.9712 
3.59807 1.07283 13.2673 
3.60859 0.446105 14.2885 
3.10456 0.793619 15.3543 
2.72418 3.67606 12.7709 
5.10701 4.09318 13.3752 
3.15368 3.39574 15.2053 
1.9519 1.37271 18.3663 
0.705027 2.05729 18.5581 
1.87385 0.656915 17.567 
2.42998 1.64715 20.7772 
2.32306 0.744751 19.6278 
1.15766 2.32358 20.9191 
0.21034 4.076 16.3754 
0.596573 4.94062 17.1278 
0.659824 2.9586 19.6976 
1.33818 3.78587 19.5028 
5.11311 1.70342 18.7387 
2.70479 2.11837 18.1466 
3.16943 2.39469 20.5973 
2.68291 4.70144 16.3316 
3.5977 4.70652 18.6174 
3.60932 5.33988 19.6415 
3.10298 4.98929 20.7137 
0.335179 8.24667 1.57938 
0.91337 7.94128 5.07033 
1.4756 9.87923 2.6721 
0.435408 10.2705 3.12178 
0.308383 11.2203 3.8676 
2.9893 6.86647 2.55737 
3.93536 6.86694 0.249901 
2.98294 6.23001 3.59509 
3.49425 6.57105 4.64271 
3.40737 9.19123 4.51413 
4.63108 10.1941 2.3094 
3.91334 9.44728 2.06049 
4.70063 10.9385 1.50945 
4.16534 9.92763 4.71316 
4.2683 10.8311 3.57192 
1.48012 7.48451 8.02953 
0.437822 7.08613 8.48675 
0.31496 6.15054 9.22277 
0.366073 9.15228 6.88387 
0.909251 9.42769 10.4301 
4.63206 7.16106 7.6683 
3.87786 7.90203 7.42029 
4.71622 6.45942 6.86558 
4.16384 7.42552 10.0698 
4.27693 6.53214 8.91877 
3.39577 8.17663 9.86982 
3.91991 10.5043 5.60536 
2.9899 10.4879 7.91412 
5.2389 9.53896 8.76083 
2.97834 11.1307 8.93917 
3.50001 10.7758 9.99936 
0.321792 8.21474 12.2894 
0.91772 7.93242 15.7893 
1.48296 9.88369 13.3819 
0.437429 10.2617 13.8343 
0.308701 11.2151 14.5825 
3.95625 6.88318 10.971 
2.98878 6.87303 13.265 
2.98387 6.22615 14.2954 
3.50019 6.58493 15.3537 
5.26946 7.78067 14.1168 
4.63106 10.2078 13.0231 
3.87687 9.46158 12.7524 
4.70659 10.9546 12.205 
4.16457 9.93163 15.4172 
4.26638 10.8259 14.2766 
3.41299 9.20061 15.2263 
1.47793 7.48445 18.7386 
0.438351 7.09899 19.191 
0.316387 6.14251 19.9334 
0.328004 9.16222 17.6129 
0.9112 9.41632 21.1376 
4.63355 7.16584 18.3688 
3.90106 7.90411 18.1127 
4.69249 6.47194 17.5752 
4.17746 7.43143 20.7694 
4.26683 6.53005 19.6342 
3.41071 8.16539 20.5658 
3.93542 10.4925 16.3322 
2.98703 10.4928 18.6224 
5.25656 9.54724 19.4828 
2.98417 11.1411 19.6443 
3.49503 10.7728 20.7105 
0.19736 13.2833 0.322617 
0.606222 12.4147 1.06178 
0.667003 14.3996 3.63106 
1.33756 13.605 3.40512 
1.95564 15.9926 2.30961 
0.703382 15.311 2.49647 
1.92631 16.6923 1.52278 
2.42823 15.7199 4.70893 
2.322 16.6159 3.57148 
1.15512 15.0405 4.8627 
3.59951 12.6551 2.55781 
2.65576 12.6793 0.273834 
3.61511 12.0099 3.58428 
3.10097 12.3693 4.64914 
2.70023 15.2225 2.01474 
5.11614 15.6658 2.67243 
3.21111 14.9722 4.52449 
1.96013 12.9458 7.66877 
0.706751 13.6337 7.8517 
1.90931 12.2376 6.87747 
2.42432 13.2263 10.0694 
2.32741 12.313 8.92101 
1.1602 13.9006 10.2157 
0.204357 15.6564 5.67182 
0.591705 16.5151 6.41927 
0.655768 14.5337 8.99448 
1.32869 15.3538 8.77392 
5.11327 13.2705 8.02763 
2.70149 13.6802 7.37979 
3.18312 13.9432 9.88714 
2.64927 16.2875 5.59993 
3.59892 16.2792 7.91008 
3.60437 16.9201 8.9408 
3.09372 16.5695 10.0061 
0.19771 13.2814 11.0237 
0.603337 12.421 11.7697 
0.661393 14.4041 14.3504 
1.33899 13.5796 14.1416 
1.9652 15.992 13.0289 
0.708447 15.3047 13.2049 
1.91923 16.703 12.208 
2.42847 15.7154 15.4166 
2.31432 16.6168 14.2803 
1.16447 15.0454 15.5662 
3.6033 12.6502 13.2627 
2.62475 12.628 10.9562 
3.61154 12.0145 14.2927 
3.0919 12.3679 15.3559 
2.70852 15.2358 12.7943 
5.11176 15.6595 13.3803 
3.15807 14.9745 15.22 
1.96152 12.9429 18.3751 
0.696195 13.6307 18.5544 
1.89392 12.2281 17.6148 
2.41603 13.215 20.7709 
2.3188 12.3189 19.6298 
1.15628 13.8919 20.9219 
0.205857 15.6553 16.3761 
0.602581 16.522 17.1223 
0.671135 14.5424 19.6999 
1.33169 15.3456 19.5042 
5.12201 13.2773 18.7389 
2.71297 13.6961 18.1187 
3.15757 13.9435 20.5872 
2.67873 16.2988 16.3224 
3.59491 16.286 18.6217 
3.61557 16.9179 19.6447 
3.10089 16.5653 20.7073 
0.339129 19.8194 1.5714 
0.913645 19.5173 5.07141 
1.47375 21.4426 2.67216 
0.439032 21.8551 3.13553 
0.306962 22.7924 3.86372 
2.99657 18.436 2.56147 
3.94612 18.4369 0.270367 
2.98116 17.8021 3.58134 
3.48498 18.1566 4.63955 
3.41613 20.7638 4.5304 
4.63468 21.7701 2.31307 
3.87587 21.0089 2.02288 
4.68783 22.4646 1.50344 
4.17065 21.5038 4.71233 
4.2736 22.4067 3.57004 
1.47737 19.0717 8.02582 
0.439531 18.6647 8.48874 
0.315335 17.7152 9.22129 
0.348027 20.7168 6.92201 
0.909291 20.9966 10.4275 
4.63173 18.7361 7.66 
3.85364 19.4606 7.40768 
4.7324 18.0377 6.85016 
4.16371 19.012 10.0717 
4.28009 18.1053 8.93292 
3.45122 19.7471 9.88294 
2.98871 22.0623 7.91098 
3.92391 22.0599 5.62791 
2.98196 22.7105 8.93924 
3.494 22.3593 10.0012 
5.25641 21.1522 8.78206 
0.326843 19.8105 12.2836 
0.912003 19.5073 15.782 
1.47719 21.4455 13.3785 
0.43972 21.8557 13.8442 
0.313163 22.7925 14.5804 
3.92309 18.4273 10.9638 
2.99617 18.4365 13.2677 
2.98045 17.8023 14.2907 
3.48902 18.1609 15.3619 
5.26221 19.3665 14.1324 
4.62722 21.7719 13.0255 
3.90593 21.0248 12.7508 
4.68676 22.5067 12.2074 
4.16788 21.4997 15.42 
4.26665 22.4054 14.2747 
3.41277 20.7459 15.2304 
1.46913 19.0575 18.741 
0.433579 18.6579 19.202 
0.304464 17.7116 19.9247 
0.350043 20.6954 17.6217 
0.91614 21.0053 21.1424 
4.63411 18.7307 18.3843 
3.89788 19.514 18.1146 
4.68545 18.0127 17.5833 
4.16115 19.0096 20.7716 
4.27792 18.0953 19.6251 
3.40029 19.7481 20.585 
2.98766 22.0691 18.6211 
3.93918 22.0791 16.307 
2.9753 22.7019 19.6436 
3.49167 22.3565 20.7184 
5.24884 21.1401 19.5062 
7.2552 2.82211 1.72265 
6.22628 2.43425 1.57714 
6.79623 1.70285 5.04027 
5.6851 2.14369 5.08003 
7.19202 0.840261 4.29142 
7.74563 3.46288 0.493229 
7.30206 3.73117 2.85782 
6.15182 4.47993 3.13184 
6.28075 5.43731 3.86781 
7.94793 1.99808 1.93449 
10.1981 0.440611 1.77457 
9.69649 0.791133 0.703126 
9.25142 1.10078 5.10695 
10.1917 1.07983 2.80446 
9.01005 4.13768 0.648642 
8.91048 5.04332 1.78931 
9.75665 3.40619 0.848254 
8.54928 4.40549 3.04 
9.31553 3.67009 3.29026 
8.51042 5.09989 3.81363 
7.74981 2.32596 5.84274 
7.30153 2.06033 8.20924 
6.15383 1.30338 8.47722 
6.27771 0.359363 9.22236 
7.24998 2.9654 7.07967 
6.23008 3.37013 6.89124 
6.78951 4.07805 10.3919 
5.67032 3.63101 10.4363 
7.18491 4.94875 9.64912 
9.01246 1.64848 6.00121 
8.91151 0.737368 7.14398 
9.74949 2.38423 6.18892 
8.55424 1.37163 8.3977 
9.30471 2.11876 8.65983 
8.47746 0.650295 9.19479 
7.95528 3.77714 7.31322 
10.206 5.34181 7.13052 
9.6896 4.98853 6.06786 
10.1917 4.70505 8.15079 
9.26725 4.72708 10.4462 
7.25852 2.81918 12.4231 
6.25611 2.44692 12.2887 
6.79491 1.71129 15.7515 
5.67575 2.15117 15.7919 
7.18953 0.84215 15.0041 
7.74892 3.46863 11.2035 
7.29135 3.72219 13.5693 
6.15752 4.4791 13.8362 
6.27832 5.42903 14.5753 
7.93093 2.03032 12.6509 
10.2078 0.43937 12.4752 
9.69012 0.797171 11.4181 
9.23755 1.05138 15.7833 
10.1892 1.08285 13.51 
9.01433 4.13581 11.3497 
8.91437 5.04883 12.4952 
9.76519 3.42548 11.5343 
8.55095 4.41322 13.7551 
9.29299 3.66468 14.0179 
8.5056 5.12947 14.5468 
7.75092 2.31422 16.5601 
7.29206 2.05296 18.9279 
6.16174 1.30256 19.1947 
6.27671 0.358107 19.932 
7.2663 2.96416 17.7791 
6.2559 3.33039 17.6137 
6.79218 4.07395 21.1059 
5.67627 3.63343 21.1412 
7.1898 4.94309 20.361 
9.01161 1.648 16.7155 
8.91352 0.749862 17.8475 
9.76408 2.39712 16.9028 
8.54961 1.37705 19.0998 
9.30404 2.13151 19.3573 
8.50067 0.674583 19.8961 
7.96718 3.78172 18.0193 
10.2018 5.34298 17.8282 
9.68386 4.99545 16.7756 
9.24158 4.71816 21.1691 
10.1851 4.71144 18.8571 
6.38544 7.49904 0.308495 
7.50371 7.93356 0.277737 
5.98937 6.63183 1.05662 
5.92851 8.60983 3.6322 
6.93148 8.24609 3.82622 
5.88208 9.50971 2.49589 
7.03227 10.2695 2.22529 
6.90464 11.2182 1.49416 
5.43572 9.25225 4.86265 
9.56468 6.22837 1.77285 
10.0816 6.57764 0.71326 
10.5087 6.86933 5.08002 
9.58213 6.86713 2.79323 
10.0298 9.19307 0.849362 
10.4564 9.46296 3.30281 
8.07182 9.87494 2.68385 
5.27828 7.80444 3.40681 
5.88914 7.85082 7.84945 
7.02749 7.0996 7.58306 
6.89174 6.1492 6.8529 
5.43416 8.11429 10.2145 
6.39033 9.87163 5.66885 
7.50504 9.42866 5.63476 
5.9981 10.7316 6.41232 
5.93125 8.74513 8.99813 
6.94979 9.12139 9.15289 
9.98915 8.18838 6.18224 
8.06118 7.48435 8.02914 
10.4762 7.89198 8.64693 
9.57002 11.1334 7.12574 
10.0756 10.7758 6.06739 
10.5215 10.505 10.461 
9.5814 10.4915 8.15366 
6.38634 7.49702 11.0296 
7.50166 7.93984 10.9932 
5.99213 6.62594 11.7703 
5.92408 8.60693 14.3445 
6.93774 8.22826 14.5127 
5.88484 9.51219 13.2025 
7.03077 10.2779 12.9292 
6.90235 11.223 12.1949 
5.4321 9.24586 15.5699 
9.57156 6.23177 12.4745 
10.0863 6.57606 11.4197 
10.5116 6.89424 15.7914 
9.57914 6.86722 13.5072 
10.0259 9.22179 11.5214 
10.5177 9.48193 13.9993 
8.06689 9.87839 13.3884 
5.89393 7.84741 18.5596 
7.03302 7.08537 18.2895 
6.90393 6.14282 17.5527 
5.43213 8.10328 20.9293 
6.38829 9.86654 16.3762 
7.50783 9.42678 16.3451 
5.99379 10.7341 17.123 
5.91985 8.74678 19.6946 
6.89649 9.10582 19.8728 
10.0073 8.13796 16.8712 
8.07456 7.48414 18.7391 
10.4682 7.92197 19.3834 
9.57 11.1323 17.8338 
10.088 10.7809 16.7709 
10.5172 10.4796 21.1358 
9.58578 10.4937 18.8508 
7.24211 14.4028 1.72757 
6.22723 14.0151 1.58424 
6.79754 13.2817 5.03841 
5.6762 13.7274 5.06692 
7.18691 12.4217 4.2988 
7.75053 15.0447 0.493773 
7.2972 15.3026 2.86305 
6.15276 16.0628 3.12823 
6.27829 17.0042 3.86955 
10.2015 12.0149 1.77381 
9.69549 12.3683 0.714204 
7.91659 13.5624 1.94807 
10.1875 12.6491 2.79299 
9.24451 12.6303 5.07871 
9.01852 15.7119 0.645209 
8.91389 16.612 1.78921 
9.74842 14.9628 0.824362 
8.54255 15.9879 3.04858 
9.3159 15.2582 3.27223 
8.49271 16.7233 3.83749 
7.75164 13.8903 5.8438 
7.30271 13.6325 8.21287 
6.14421 12.8767 8.48825 
6.28588 11.9351 9.22865 
7.25906 14.5389 7.07227 
6.22519 14.926 6.94204 
6.79736 15.6582 10.394 
5.6762 15.2137 10.432 
7.18858 16.5168 9.64084 
9.0178 13.2211 5.99969 
8.91444 12.3174 7.13646 
9.76384 13.9655 6.18631 
8.55386 12.9528 8.39349 
9.32537 13.6846 8.66019 
8.48201 12.2513 9.21471 
7.92437 15.3943 7.28459 
10.1982 16.9252 7.12618 
9.69546 16.5627 6.06649 
10.182 16.2817 8.14992 
9.23846 16.2724 10.4621 
7.25288 14.3925 12.4345 
6.21488 14.0278 12.2763 
6.79651 13.2875 15.7446 
5.66742 13.7261 15.777 
7.19485 12.418 15.0031 
7.73831 15.043 11.2081 
7.30124 15.3033 13.5655 
6.16071 16.0674 13.8425 
6.2867 17.0062 14.5769 
10.2071 12.019 12.4811 
9.68957 12.3709 11.4179 
7.90931 13.5637 12.6465 
10.19 12.6532 13.5052 
9.26098 12.6806 15.8054 
9.01766 15.7159 11.3513 
8.90971 16.6167 12.4939 
9.77983 14.9984 11.5479 
8.54882 15.9838 13.7588 
9.28375 15.2599 14.0064 
8.49339 16.7036 14.5646 
7.74237 13.8915 16.5639 
7.29811 13.6333 18.9212 
6.15792 12.871 19.1925 
6.27519 11.9293 19.9299 
7.2472 14.5288 17.7886 
6.22033 14.8878 17.6566 
6.78985 15.6513 21.1061 
5.67676 15.208 21.133 
7.1942 16.5171 20.3629 
9.01956 13.2216 16.712 
8.90889 12.3177 17.8411 
9.74823 13.957 16.8539 
8.55128 12.9488 19.1084 
9.29928 13.6943 19.3891 
8.48702 12.2332 19.9101 
7.93203 15.3372 18.008 
10.2086 16.9232 17.8304 
9.68784 16.5624 16.7695 
9.23196 16.3033 21.1363 
10.1802 16.2867 18.8638 
6.39005 19.0705 0.317751 
7.50327 19.5147 0.274695 
5.9928 18.1915 1.0591 
5.93448 20.1828 3.63015 
6.93271 19.8167 3.80831 
5.88051 21.0944 2.49368 
7.03895 21.8472 2.23206 
6.89503 22.7945 1.48671 
5.43613 20.8308 4.85879 
9.57363 17.8024 1.77132 
10.0821 18.1523 0.702209 
10.5251 18.4385 5.09613 
9.59446 18.4322 2.80308 
10.0273 20.7703 0.801765 
10.4749 21.0041 3.30467 
8.07001 21.4556 2.68149 
5.27812 19.3831 3.41202 
5.88536 19.4229 7.84592 
7.03351 18.6624 7.57545 
6.8974 17.7248 6.84743 
5.43211 19.6825 10.2203 
6.38831 21.4381 5.6697 
7.50139 21.0026 5.62942 
5.99333 22.3059 6.41372 
5.92186 20.324 8.99013 
6.91604 20.6814 9.16813 
10.0197 19.7458 6.16444 
8.07271 19.0615 8.04065 
10.4709 19.5176 8.64761 
9.57085 22.7055 7.13096 
10.0846 22.3486 6.06102 
9.57597 22.061 8.15711 
10.5115 22.0816 10.4352 
6.38467 19.0692 11.0222 
7.50268 19.5062 10.993 
5.98862 18.2064 11.7642 
5.92941 20.185 14.338 
6.90267 19.7902 14.5124 
5.88554 21.0893 13.2047 
7.02374 21.8449 12.9338 
6.90577 22.7928 12.1962 
5.43432 20.8297 15.5674 
9.56575 17.8005 12.4733 
10.0831 18.1589 11.4214 
8.06801 21.4504 13.3961 
9.58398 18.4379 13.4966 
10.0168 20.7678 11.5595 
10.4933 21.0116 14.0179 
5.88972 19.424 18.5634 
7.02686 18.6572 18.2888 
6.91482 17.7228 17.5457 
5.43379 19.6856 20.9264 
6.38951 21.4394 16.3802 
7.50346 21.004 16.3383 
5.98917 22.311 17.119 
5.93 20.3277 19.6918 
6.95503 20.6971 19.8604 
10.0209 19.7653 16.8894 
8.06385 19.0552 18.7496 
10.4897 19.4817 19.3368 
9.57164 22.7106 17.8364 
10.0803 22.3475 16.7778 
9.58996 22.068 18.8609 
10.536 22.0576 21.1472 
13.3815 1.7067 0.305821 
13.7819 0.838968 1.06394 
13.8446 2.82123 3.63681 
14.5449 1.99732 3.39625 
15.148 4.41481 2.30871 
13.8872 3.73302 2.49444 
15.0786 5.1281 1.50232 
15.6086 4.1502 4.70898 
15.5068 5.04793 3.56197 
14.333 3.46205 4.85428 
12.2698 2.14582 0.285377 
12.8651 2.45704 3.76545 
12.7502 4.48665 2.22691 
12.8719 5.43147 1.4968 
11.6977 4.08941 2.68105 
15.1348 1.37542 7.6782 
13.8853 2.05028 7.8471 
15.0922 0.649315 6.88157 
15.6137 1.64536 10.061 
15.508 0.730105 8.92125 
14.3358 2.31658 10.2213 
13.3892 4.08544 5.66894 
13.7837 4.94302 6.41542 
13.8377 2.97294 8.99269 
14.5227 3.75667 8.78165 
12.7332 1.30446 7.58766 
12.8724 0.359175 6.84786 
11.7057 1.69425 8.03917 
12.2638 3.63025 5.63157 
12.8389 3.31765 9.1594 
13.3903 1.70682 11.0201 
13.7901 0.84031 11.7724 
13.8489 2.81942 14.3421 
14.5104 1.9904 14.1225 
15.1481 4.41628 13.0224 
13.895 3.73732 13.2023 
15.0633 5.15281 12.2275 
15.6047 4.13963 15.4214 
15.4955 5.04549 14.2643 
14.3397 3.47482 15.575 
12.271 2.15196 10.9886 
12.8487 2.44192 14.4713 
12.7459 4.48699 12.9307 
12.8757 5.42984 12.1923 
11.7021 4.09026 13.3889 
15.1487 1.37863 18.3711 
13.8952 2.06001 18.5494 
15.079 0.646923 17.5724 
15.6066 1.64632 20.7704 
15.5082 0.737392 19.6272 
14.3319 2.31809 20.9197 
13.3888 4.07756 16.3832 
13.7713 4.94872 17.1243 
13.8497 2.9736 19.7064 
14.5189 3.78965 19.4632 
12.744 1.30073 18.284 
12.8732 0.359334 17.5481 
11.7047 1.69658 18.7434 
12.2643 3.62957 16.3447 
12.8404 3.3456 19.8625 
15.8145 4.70045 16.2909 
13.5286 8.24602 1.57211 
14.1018 7.93732 5.06969 
14.6624 9.8789 2.6704 
13.6196 10.2651 3.12951 
13.4952 11.2129 3.86837 
12.5126 8.60876 1.7142 
11.8666 7.80464 1.94736 
12.9804 7.48223 5.04023 
12.5867 6.63107 4.29195 
10.7595 9.93415 0.641135 
10.8699 10.8313 1.79777 
12.0268 9.25953 0.500034 
11.2224 10.1999 3.05137 
12.4687 9.51239 2.85919 
11.2846 10.8858 3.85373 
14.6615 7.48464 8.02526 
13.6158 7.08873 8.48291 
13.4887 6.14657 9.21739 
13.5222 9.10229 6.94481 
14.0883 9.4223 10.4347 
10.7591 7.42472 6.0001 
10.8512 6.52671 7.13751 
12.0307 8.10936 5.85398 
11.2238 7.16501 8.3893 
12.4742 7.85453 8.20675 
11.3045 6.46268 9.20048 
12.5179 8.75016 7.07827 
11.816 9.57253 7.31631 
12.9814 9.86824 10.3924 
12.5813 10.7328 9.64052 
13.529 8.25429 12.2629 
14.1028 7.93754 15.7807 
14.663 9.87629 13.3727 
13.6245 10.2697 13.837 
13.4987 11.2119 14.575 
12.5146 8.6156 12.4291 
11.8364 7.78572 12.6413 
12.9813 7.49323 15.7513 
12.5847 6.63275 15.0093 
10.7552 9.93285 11.353 
10.8656 10.8286 12.4914 
12.0263 9.253 11.2122 
11.2149 10.2048 13.7487 
12.4786 9.51361 13.5713 
11.2889 10.9222 14.5686 
14.6648 7.4823 18.7351 
13.6163 7.08511 19.1932 
13.4935 6.14399 19.9327 
13.5402 9.1171 17.6577 
14.0974 9.41925 21.1364 
10.7635 7.42404 16.7058 
10.8629 6.5206 17.8478 
12.0238 8.10724 16.5561 
11.2269 7.16159 19.095 
12.4728 7.84512 18.917 
11.2833 6.43452 19.9177 
12.5222 8.75291 17.781 
11.8532 9.6076 18.0011 
12.9755 9.87219 21.0979 
12.5854 10.7313 20.3589 
13.3884 13.277 0.310803 
13.7856 12.4131 1.06609 
13.8476 14.3969 3.63899 
14.5581 13.5816 3.4114 
15.1395 15.9889 2.31037 
13.8861 15.3049 2.49405 
15.0729 16.6971 1.50845 
15.6021 15.711 4.71083 
15.5028 16.6162 3.56492 
14.341 15.0455 4.85411 
12.2668 13.7198 0.281664 
12.8415 14.0277 3.80966 
12.7421 16.06 2.22581 
12.8648 17.007 1.48549 
11.7017 15.6589 2.68375 
15.8165 12.6769 0.263735 
15.1471 12.9538 7.67358 
13.8899 13.6355 7.84067 
15.067 12.2357 6.86248 
15.6041 13.2198 10.0699 
15.4998 12.3083 8.91759 
14.335 13.8921 10.2056 
13.3891 15.6549 5.67665 
13.7846 16.5137 6.41363 
13.843 14.5319 8.98708 
14.5173 15.3901 8.76584 
12.745 12.8805 7.56973 
12.8706 11.9252 6.84314 
11.7024 13.2681 8.03696 
12.2678 15.2081 5.63207 
12.8377 14.9255 9.16007 
13.3911 13.2835 11.0218 
13.7812 12.4185 11.7753 
13.8435 14.3972 14.3478 
14.5267 13.5731 14.1187 
15.138 15.987 13.0254 
13.892 15.3042 13.2047 
15.0456 16.7034 12.248 
15.6016 15.7244 15.4239 
15.5013 16.6239 14.2775 
14.3478 15.035 15.5697 
12.2695 13.7277 10.9891 
12.8324 14.0131 14.5072 
12.7452 16.0606 12.941 
12.8781 17.0042 12.1948 
11.701 15.6682 13.3891 
15.1361 12.9499 18.3862 
13.884 13.6328 18.5576 
15.0736 12.2377 17.568 
15.6052 13.2102 20.7722 
15.5053 12.3138 19.6245 
14.3365 13.8975 20.9236 
13.3871 15.6551 16.3746 
13.7819 16.5137 17.129 
13.8393 14.5379 19.69 
14.5373 15.3458 19.4596 
12.7386 12.8736 18.2841 
12.8717 11.9313 17.5506 
11.7016 13.2768 18.7462 
12.2687 15.2104 16.3432 
12.8421 14.9034 19.8626 
13.535 19.799 1.54949 
14.0916 19.5127 5.07234 
14.6594 21.4559 2.67473 
13.6169 21.8464 3.13139 
13.497 22.794 3.86668 
12.5179 20.1827 1.71764 
11.8396 19.3833 1.97059 
12.9796 19.065 5.04306 
12.5767 18.2053 4.29439 
10.7564 21.5069 0.643851 
10.8523 22.4033 1.79094 
12.0276 20.8325 0.49942 
11.2194 21.7703 3.04121 
12.4744 21.0901 2.86565 
11.2745 22.4834 3.84447 
14.6603 19.0607 8.01951 
13.6215 18.6698 8.49063 
13.4929 17.7139 9.21581 
13.536 20.6872 6.91371 
14.0991 20.9993 10.4269 
10.7592 19.0071 5.99398 
10.8611 18.1073 7.14389 
12.0313 19.6859 5.84746 
11.2273 18.737 8.39269 
12.4739 19.4162 8.21615 
11.2983 18.0082 9.23296 
12.5206 20.3178 7.06885 
11.8173 21.1648 7.288 
12.9794 21.4396 10.3995 
12.5831 22.3056 9.6491 
13.5483 19.8191 12.2735 
14.0932 19.5148 15.7773 
14.6641 21.4584 13.3832 
13.6184 21.8477 13.8352 
13.4925 22.7857 14.5782 
12.512 20.1868 12.4258 
11.8459 19.3725 12.6212 
12.9712 19.0709 15.7505 
12.5821 18.2002 15.0066 
10.7618 21.5082 11.3511 
10.8633 22.4044 12.4987 
12.0221 20.8272 11.2069 
11.2197 21.7764 13.7559 
12.4719 21.096 13.5614 
11.2922 22.4909 14.5933 
10.5459 18.4404 15.7806 
14.6596 19.0559 18.7395 
13.6151 18.6665 19.1952 
13.4986 17.7195 19.9315 
13.5005 20.7041 17.6246 
14.1004 20.9919 21.1411 
10.7625 19.01 16.7024 
10.8591 18.1032 17.8465 
12.0229 19.6851 16.5574 
11.2182 18.7279 19.1015 
12.4709 19.4183 18.9156 
11.2844 18.0112 19.9051 
12.5207 20.3161 17.7749 
11.8321 21.1485 18.0234 
12.9825 21.4383 21.1005 
12.5851 22.306 20.3563 
15.8258 1.05751 0.227059 
16.7741 1.07735 2.56038 
16.7926 0.442184 3.58374 
16.2799 0.794721 4.64223 
15.891 3.64097 2.04206 
18.2922 4.09 2.67749 
16.3847 3.38689 4.48448 
20.4371 2.81926 1.72292 
19.4386 2.45303 1.56378 
19.9803 1.70876 5.04321 
18.8639 2.14763 5.07804 
20.3743 0.841051 4.29099 
20.9328 3.46253 0.491105 
20.4865 3.72523 2.85826 
19.3331 4.48745 3.13237 
19.4647 5.4279 3.86845 
18.2961 1.68896 8.02992 
15.8767 2.11753 7.42925 
16.3482 2.38721 9.87531 
15.841 4.72488 5.60551 
16.7763 4.71116 7.91172 
16.793 5.34894 8.94071 
16.2838 4.99006 10.0058 
20.9283 2.32815 5.84924 
20.4828 2.05939 8.21623 
19.3291 1.30155 8.47677 
19.46 0.351285 9.21301 
20.435 2.96129 7.065 
19.4507 3.36099 6.89941 
19.9796 4.07314 10.402 
18.8576 3.63703 10.4312 
20.374 4.94429 9.64429 
21.0796 3.78112 7.30678 
15.831 1.08081 10.9777 
16.7776 1.07381 13.2593 
16.7946 0.436892 14.2905 
16.2896 0.797996 15.3519 
15.8887 3.67942 12.7248 
18.294 4.08948 13.385 
16.3524 3.38699 15.214 
20.4431 2.82376 12.4252 
19.4299 2.44906 12.2714 
19.9803 1.70786 15.7497 
18.8581 2.15517 15.7821 
20.3698 0.838744 15.0004 
20.9291 3.4707 11.1987 
20.4739 3.72638 13.56 
19.3331 4.48657 13.8412 
19.4592 5.4308 14.5841 
18.3036 1.69079 18.7323 
15.9064 2.10518 18.1003 
16.3364 2.36891 20.5725 
20.3702 4.95273 20.3536 
16.7745 4.71052 18.6106 
16.7903 5.34423 19.6466 
16.2827 4.99244 20.7051 
20.9316 2.32337 16.5651 
20.4816 2.05564 18.9201 
19.3324 1.3056 19.1949 
19.4586 0.355979 19.924 
20.4347 2.96464 17.7842 
19.4385 3.32479 17.6226 
19.9732 4.07342 21.108 
18.8619 3.64272 21.1387 
16.1751 6.86766 2.55138 
17.108 6.87237 0.257735 
16.1654 6.22396 3.59121 
16.6754 6.5831 4.6488 
18.4388 7.78288 3.4153 
17.8165 10.201 2.30933 
17.0611 9.4571 2.05536 
17.8671 10.9161 1.50965 
17.3501 9.92722 4.71458 
17.445 10.8359 3.56825 
16.6182 9.19491 4.53005 
19.5612 7.48573 0.312448 
20.6903 7.93617 0.28221 
19.1732 6.63054 1.0606 
19.1115 8.61584 3.62706 
20.1181 8.22148 3.80829 
19.0699 9.51981 2.5004 
20.211 10.2644 2.22901 
20.0891 11.2188 1.48698 
18.6156 9.25822 4.85567 
17.8186 7.16259 7.67155 
17.0732 7.90165 7.39109 
17.8717 6.41755 6.88823 
17.3541 7.43046 10.0661 
17.4449 6.52577 8.91914 
16.6066 8.18697 9.89497 
17.1389 10.5131 5.62194 
16.1763 10.4939 7.908 
18.4343 9.57941 8.7678 
16.1596 11.1336 8.94875 
16.6715 10.7826 9.98768 
19.0603 7.84634 7.84478 
20.2087 7.09235 7.58013 
20.0784 6.13886 6.84226 
18.6239 8.10657 10.2156 
19.5708 9.86841 5.66703 
20.6849 9.42382 5.6342 
19.1714 10.7344 6.41724 
19.1064 8.7459 8.98593 
20.1328 9.13516 9.11994 
17.0964 6.88351 10.984 
16.1813 6.86437 13.2716 
16.158 6.23234 14.2906 
16.6832 6.57547 15.352 
18.4357 7.80463 14.1117 
17.8122 10.1912 13.0229 
17.1002 9.48303 12.766 
17.847 10.9185 12.2214 
17.3468 9.92403 15.421 
17.4497 10.8369 14.265 
16.5986 9.19434 15.2231 
19.573 7.49655 11.0196 
20.6864 7.93736 10.9903 
19.1754 6.62693 11.77 
19.1137 8.61814 14.3347 
20.1255 8.22326 14.4853 
19.0663 9.51675 13.1993 
20.2121 10.2671 12.9461 
20.0908 11.2256 12.1916 
18.6172 9.25726 15.5629 
17.8121 7.15483 18.3785 
17.0858 7.90018 18.1124 
17.8568 6.44547 17.563 
17.3505 7.43876 20.7636 
17.4479 6.53226 19.633 
16.6013 8.1668 20.5979 
17.1093 10.4977 16.3187 
16.1741 10.4964 18.6113 
18.4325 9.56147 19.4933 
16.1593 11.134 19.6421 
16.6776 10.7766 20.7127 
19.0679 7.85059 18.5577 
20.2155 7.08908 18.2943 
20.0849 6.13882 17.558 
18.6126 8.10336 20.9186 
19.5717 9.86424 16.3786 
20.687 9.42777 16.3458 
19.1721 10.7291 17.1189 
19.1062 8.75198 19.7043 
20.1159 9.15225 19.8638 
16.7795 12.6536 2.56344 
19.4661 17.0059 3.86821 
16.7965 12.0155 3.58169 
16.2822 12.3714 4.64247 
15.8831 15.2345 2.04242 
18.2896 15.6556 2.67506 
16.3595 14.9932 4.49252 
20.4316 14.4013 1.71878 
19.426 14.0162 1.5611 
19.9744 13.2803 5.04108 
18.8558 13.7212 5.07198 
20.3656 12.417 4.29369 
20.9218 15.0443 0.491109 
20.4829 15.3026 2.86249 
19.3349 16.0625 3.1296 
18.2911 13.2677 8.02542 
15.8858 13.7272 7.40082 
16.3807 13.9559 9.87584 
15.855 16.2691 5.61014 
16.7804 16.2775 7.90826 
16.7943 16.921 8.93328 
16.2846 16.5679 9.99973 
20.9322 13.896 5.84751 
20.4809 13.6315 8.21761 
19.3262 12.874 8.48474 
19.4604 11.935 9.22019 
20.4274 14.538 7.07029 
19.4244 14.9035 6.89984 
19.9802 15.6587 10.3916 
18.8586 15.2085 10.4353 
20.3679 16.5142 9.65363 
16.7758 12.6566 13.2667 
15.8661 12.6568 10.9704 
16.7867 12.0116 14.2948 
16.275 12.373 15.3541 
15.919 15.2886 12.7622 
18.2915 15.6612 13.3818 
16.3508 14.9848 15.2287 
20.436 14.3936 12.4289 
19.4381 14.0172 12.2569 
19.97 13.2768 15.7421 
18.8555 13.7265 15.7807 
20.3742 12.4201 15.0033 
20.9243 15.0382 11.2001 
20.4715 15.2986 13.5776 
19.3368 16.0579 13.8459 
19.4595 16.9993 14.5806 
18.2943 13.27 18.7382 
15.8703 13.6902 18.1129 
16.3226 13.9674 20.5816 
15.8528 16.2869 16.3216 
16.7786 16.2803 18.626 
16.7843 16.9198 19.6454 
16.2852 16.5687 20.7038 
20.9235 13.8909 16.5601 
20.4764 13.6284 18.921 
19.3365 12.8704 19.1987 
19.4529 11.9314 19.9319 
20.4339 14.5354 17.7816 
19.4371 14.9149 17.6664 
19.9764 15.655 21.1027 
18.8673 15.2176 21.1411 
20.3724 16.5154 20.3534 
16.1795 18.4452 2.55006 
17.1194 18.4511 0.268424 
16.1641 17.8002 3.58102 
16.6727 18.1632 4.64111 
18.4262 19.3758 3.41425 
17.8114 21.777 2.31375 
17.0711 21.0319 2.05339 
17.866 22.4923 1.49715 
17.3445 21.5067 4.70699 
17.453 22.4025 3.56075 
16.6306 20.7725 4.54758 
19.5621 19.0656 0.311957 
20.6812 19.5064 0.284476 
19.1817 18.1996 1.05441 
19.1169 20.1864 3.63824 
20.1125 19.799 3.80359 
19.06 21.0881 2.50003 
20.2129 21.8552 2.22236 
20.0771 22.7913 1.4839 
18.618 20.8298 4.85608 
17.815 18.7271 7.66489 
17.0357 19.4807 7.37995 
17.8558 18.0151 6.85043 
17.3529 19.0052 10.0666 
17.4506 18.1001 8.91981 
16.6011 19.7596 9.89466 
16.1728 22.065 7.91353 
17.1137 22.0716 5.61321 
16.1636 22.7043 8.93431 
16.6701 22.3536 10.0015 
18.4446 21.152 8.79384 
19.0677 19.4274 7.84891 
20.2137 18.6545 7.57727 
20.0753 17.7196 6.84006 
18.615 19.6783 10.2146 
19.5732 21.4392 5.67162 
20.6863 21.0003 5.63533 
19.179 22.3017 6.41036 
19.1044 20.3219 8.99211 
20.1248 20.7119 9.16624 
17.1015 18.4353 10.9867 
16.1697 18.4414 13.2678 
16.1712 17.8011 14.2938 
16.6708 18.1611 15.3483 
18.4784 19.3593 14.1264 
17.8087 21.7708 13.0224 
17.0892 21.0177 12.7821 
17.9171 22.4583 12.23 
17.3465 21.5124 15.4159 
17.4559 22.4078 14.2762 
16.6221 20.7516 15.2318 
19.5674 19.0701 11.0191 
20.6845 19.5109 10.9925 
19.1697 18.211 11.777 
19.1035 20.1897 14.3427 
20.1101 19.8092 14.5048 
19.0721 21.0862 13.1968 
20.2127 21.8506 12.9334 
20.083 22.7958 12.1977 
18.619 20.8243 15.5649 
17.8126 18.7353 18.38 
17.068 19.4712 18.1392 
17.8813 18.0046 17.5724 
17.3581 18.9994 20.7773 
17.4446 18.1068 19.633 
16.6042 19.751 20.5479 
16.1687 22.0693 18.6192 
17.1405 22.0772 16.3222 
16.1565 22.7152 19.6481 
16.6741 22.3542 20.7125 
18.4343 21.1404 19.4938 
19.0664 19.4184 18.5584 
20.2077 18.6618 18.2893 
20.0851 17.7171 17.5558 
18.6158 19.679 20.9268 
19.5697 21.4412 16.3704 
20.6892 20.9984 16.3415 
19.1732 22.3028 17.1248 
19.111 20.3175 19.7042 
20.0926 20.7234 19.8704 
21.1217 2.01379 1.93048 
23.3816 0.435083 1.78375 
22.8692 0.796871 0.705937 
22.4184 1.09426 5.08446 
23.3712 1.077 2.79962 
22.2024 4.14508 0.65076 
22.0957 5.05205 1.7887 
22.9422 3.42446 0.840434 
21.7301 4.41082 3.04488 
22.4608 3.68459 3.31128 
21.6653 5.12102 3.84135 
25.4499 2.14471 0.278729 
26.0125 2.45319 3.80281 
25.9195 4.48591 2.2251 
26.0487 5.42902 1.48652 
24.8803 4.0891 2.67283 
22.1898 1.65187 5.99229 
22.0914 0.737001 7.14717 
22.9185 2.37889 6.16794 
21.7357 1.37584 8.40358 
22.4725 2.10685 8.6539 
21.6825 0.664442 9.19981 
26.0067 3.31107 9.15789 
23.388 5.3507 7.12773 
22.8731 4.98991 6.06237 
23.3687 4.71267 8.1582 
22.4272 4.69909 10.4505 
25.9176 1.29619 7.58345 
26.0575 0.35386 6.83517 
24.8835 1.69199 8.03707 
25.4484 3.63237 5.63315 
21.1072 2.00668 12.6546 
23.3837 0.442654 12.4785 
22.874 0.799024 11.4224 
22.4125 1.09 15.7815 
23.3725 1.07651 13.5053 
22.1916 4.13897 11.3503 
22.0873 5.04718 12.4932 
22.9325 3.42159 11.54 
21.7362 4.41396 13.7444 
22.4766 3.65815 14.0087 
21.6596 5.12945 14.5564 
25.4476 2.14724 10.9921 
26.031 2.4502 14.4883 
25.9287 4.4766 12.9367 
26.0509 5.42762 12.1994 
24.8863 4.08457 13.3905 
22.1934 1.64221 16.7026 
22.0932 0.739462 17.8509 
22.9553 2.38628 16.8888 
21.734 1.36862 19.1021 
22.4804 2.12954 19.3681 
21.6749 0.685226 19.9083 
21.1111 3.78933 17.997 
23.3869 5.3517 17.8378 
22.8779 4.99249 16.7697 
22.4387 4.70483 21.1313 
23.3758 4.70805 18.8603 
25.9211 1.29913 18.2849 
26.0604 0.358597 17.5566 
24.89 1.69144 18.7484 
25.4453 3.64333 16.3512 
26.0038 3.34923 19.847 
22.7523 6.22701 1.76877 
23.264 6.58279 0.708708 
23.7059 6.88603 5.11612 
22.7697 6.86611 2.80014 
23.2044 9.19961 0.805005 
23.664 9.45427 3.31785 
21.2476 9.87192 2.6787 
25.7046 8.61923 1.71956 
25.0175 7.77441 1.91978 
26.1546 7.4885 5.03693 
25.7603 6.63147 4.29702 
23.9265 9.9205 0.638781 
24.0443 10.8324 1.78603 
25.2142 9.25362 0.493534 
24.4112 10.1999 3.04492 
25.6567 9.50614 2.85721 
24.4752 10.9298 3.8608 
23.1561 8.17395 6.17284 
21.2517 7.48793 8.03817 
23.6505 7.91348 8.66683 
22.7583 11.1307 7.12338 
23.2699 10.7759 6.06563 
23.7057 10.4939 10.4525 
22.7699 10.4919 8.15872 
23.9275 7.42835 5.99417 
24.0449 6.52747 7.14826 
25.2108 8.11174 5.84981 
24.409 7.15705 8.39994 
25.6626 7.84337 8.21615 
24.4528 6.43256 9.20977 
25.702 8.75191 7.06617 
25.0235 9.5346 7.29026 
26.1587 9.86394 10.3898 
25.7672 10.7232 9.64451 
22.7503 6.22467 12.4827 
23.2679 6.58783 11.4153 
23.7082 6.84764 15.7856 
22.7665 6.86227 13.5087 
23.2235 9.23513 11.5224 
23.6694 9.47815 14.0058 
21.2477 9.87209 13.3925 
25.7055 8.61599 12.433 
25.0255 7.76366 12.6722 
26.1584 7.49781 15.7501 
25.7613 6.62847 15.0021 
23.9383 9.93005 11.3525 
24.0455 10.8294 12.4977 
25.1981 9.26208 11.1987 
24.4086 10.1959 13.7472 
25.6641 9.52029 13.5655 
24.4697 10.9288 14.5656 
23.1945 8.16571 16.9034 